<?xml version="1.0" encoding="UTF-8"?>

<!-- generated on 2026-02-13T10:08:36.421165+01:00 by Eclipse SUMO sumo v1_26_0+0194-784c8d1ff8f
<sumoConfiguration xmlns:xsi="http://www.w3.org/2001/XMLSchema-instance" xsi:noNamespaceSchemaLocation="http://sumo.dlr.de/xsd/sumoConfiguration.xsd">

    <input>
        <net-file value="net.net.xml"/>
        <route-files value="input_routes.rou.xml"/>
    </input>

    <output>
        <tripinfo-output value="tripinfos.xml"/>
        <tripinfo-output.write-unfinished value="true"/>
        <vehroute-output value="vehroutes.xml"/>
        <vehroute-output.write-unfinished value="true"/>
        <stop-output value="stopinfos.xml"/>
    </output>

    <time>
        <end value="1000"/>
    </time>

    <report>
        <duration-log.disable value="true"/>
        <no-step-log value="true"/>
    </report>

    <taxi_device>
        <device.taxi.dispatch-period value="10"/>
        <device.taxi.idle-algorithm value="randomCircling"/>
    </taxi_device>

    <mesoscopic>
        <mesosim value="true"/>
    </mesoscopic>

</sumoConfiguration>
-->

<stops xmlns:xsi="http://www.w3.org/2001/XMLSchema-instance" xsi:noNamespaceSchemaLocation="http://sumo.dlr.de/xsd/stopinfo_file.xsd">
    <stopinfo id="v0" type="taxi" edge="C1B1" pos="0.00" parking="1" started="5.98" ended="9.00" initialPersons="0" loadedPersons="1" unloadedPersons="0" initialContainers="0" loadedContainers="0" unloadedContainers="0" blockedDuration="0.00"/>
    <stopinfo id="v0" type="taxi" edge="B1A1" pos="190.40" parking="1" started="42.55" ended="103.00" initialPersons="1" loadedPersons="0" unloadedPersons="1" initialContainers="0" loadedContainers="0" unloadedContainers="0" blockedDuration="0.00"/>
</stops>
