<?xml version="1.0" encoding="UTF-8"?>

<!-- generated on 2026-02-13T10:08:05.243885+01:00 by Eclipse SUMO sumo v1_26_0+0194-784c8d1ff8f
<sumoConfiguration xmlns:xsi="http://www.w3.org/2001/XMLSchema-instance" xsi:noNamespaceSchemaLocation="http://sumo.dlr.de/xsd/sumoConfiguration.xsd">

    <input>
        <net-file value="net.net.xml"/>
        <route-files value="input_routes.rou.xml"/>
    </input>

    <output>
        <tripinfo-output value="tripinfos.xml"/>
        <tripinfo-output.write-unfinished value="true"/>
        <vehroute-output value="vehroutes.xml"/>
        <vehroute-output.write-unfinished value="true"/>
        <stop-output value="stopinfos.xml"/>
    </output>

    <time>
        <end value="1000"/>
    </time>

    <report>
        <duration-log.disable value="true"/>
        <no-step-log value="true"/>
    </report>

    <taxi_device>
        <device.taxi.dispatch-period value="10"/>
        <device.taxi.idle-algorithm value="randomCircling"/>
    </taxi_device>

</sumoConfiguration>
-->

<tripinfos xmlns:xsi="http://www.w3.org/2001/XMLSchema-instance" xsi:noNamespaceSchemaLocation="http://sumo.dlr.de/xsd/tripinfo_file.xsd">
    <personinfo id="p0" depart="0.00" type="DEFAULT_PEDTYPE" speedFactor="1.01" duration="144.00" waitingTime="34.00" timeLoss="5.56" traveltime="110.00">
        <ride waitingTime="34.00" vehicle="v0" depart="34.00" arrival="144.00" arrivalPos="285.60" duration="110.00" routeLength="535.60" timeLoss="5.56"/>
    </personinfo>
    <tripinfo id="v0" depart="0.00" departLane="C0C1_1" departPos="75.60" departSpeed="14.31" departDelay="0.00" arrival="-1.00" arrivalLane="" arrivalPos="-1.00" arrivalSpeed="-1.00" duration="1000.00" routeLength="10528.62" waitingTime="6.00" waitingCount="2" stopTime="62.00" timeLoss="154.52" rerouteNo="53" devices="vehroute_v0 tripinfo_v0 routing_v0 taxi_v0 person_v0" vType="taxi" speedFactor="1.03" vaporized="end">
        <taxi customers="1" occupiedDistance="535.60" occupiedTime="53.00"/>
    </tripinfo>
    <tripinfo id="v1" depart="0.00" departLane="C2C1_1" departPos="25.60" departSpeed="13.46" departDelay="0.00" arrival="-1.00" arrivalLane="" arrivalPos="-1.00" arrivalSpeed="-1.00" duration="1000.00" routeLength="11151.66" waitingTime="0.00" waitingCount="0" stopTime="0.00" timeLoss="143.35" rerouteNo="52" devices="vehroute_v1 tripinfo_v1 routing_v1 taxi_v1" vType="taxi" speedFactor="0.97" vaporized="end">
        <taxi customers="0" occupiedDistance="0.00" occupiedTime="0.00"/>
    </tripinfo>
</tripinfos>
