<?xml version="1.0" encoding="UTF-8"?>

<!-- generated on 2026-02-13T10:08:36.420825+01:00 by Eclipse SUMO sumo v1_26_0+0194-784c8d1ff8f
<sumoConfiguration xmlns:xsi="http://www.w3.org/2001/XMLSchema-instance" xsi:noNamespaceSchemaLocation="http://sumo.dlr.de/xsd/sumoConfiguration.xsd">

    <input>
        <net-file value="net.net.xml"/>
        <route-files value="input_routes.rou.xml"/>
    </input>

    <output>
        <tripinfo-output value="tripinfos.xml"/>
        <tripinfo-output.write-unfinished value="true"/>
        <vehroute-output value="vehroutes.xml"/>
        <vehroute-output.write-unfinished value="true"/>
        <stop-output value="stopinfos.xml"/>
    </output>

    <time>
        <end value="1000"/>
    </time>

    <report>
        <duration-log.disable value="true"/>
        <no-step-log value="true"/>
    </report>

    <taxi_device>
        <device.taxi.dispatch-period value="10"/>
        <device.taxi.idle-algorithm value="randomCircling"/>
    </taxi_device>

    <mesoscopic>
        <mesosim value="true"/>
    </mesoscopic>

</sumoConfiguration>
-->

<tripinfos xmlns:xsi="http://www.w3.org/2001/XMLSchema-instance" xsi:noNamespaceSchemaLocation="http://sumo.dlr.de/xsd/tripinfo_file.xsd">
    <personinfo id="p0" depart="0.00" type="DEFAULT_PEDTYPE" speedFactor="1.01" duration="43.00" waitingTime="8.00" timeLoss="0.00" traveltime="35.00">
        <ride waitingTime="8.00" vehicle="v0" depart="8.00" arrival="43.00" arrivalPos="190.40" duration="35.00" routeLength="476.00" timeLoss="0.00"/>
    </personinfo>
    <tripinfo id="v0" depart="0.00" departLane="C0C1_1" departPos="0.00" departSpeed="14.31" departDelay="0.00" arrival="-1.00" arrivalLane="" arrivalPos="-1.00" arrivalSpeed="-1.00" duration="1000.00" routeLength="13383.20" waitingTime="0.00" waitingCount="0" stopTime="61.00" timeLoss="61.36" rerouteNo="68" devices="vehroute_v0 tripinfo_v0 routing_v0 taxi_v0 person_v0" vType="taxi" speedFactor="1.03" vaporized="end">
        <taxi customers="1" occupiedDistance="476.00" occupiedTime="35.53"/>
    </tripinfo>
    <tripinfo id="v1" depart="0.00" departLane="C2C1_1" departPos="0.00" departSpeed="13.46" departDelay="0.00" arrival="-1.00" arrivalLane="" arrivalPos="-1.00" arrivalSpeed="-1.00" duration="1000.00" routeLength="13420.00" waitingTime="0.00" waitingCount="0" stopTime="0.00" timeLoss="0.00" rerouteNo="66" devices="vehroute_v1 tripinfo_v1 routing_v1 taxi_v1" vType="taxi" speedFactor="0.97" vaporized="end">
        <taxi customers="0" occupiedDistance="0.00" occupiedTime="0.00"/>
    </tripinfo>
</tripinfos>
