<?xml version="1.0" encoding="UTF-8"?>

<!-- generated on 2026-02-13T10:08:36.421303+01:00 by Eclipse SUMO sumo v1_26_0+0194-784c8d1ff8f
<sumoConfiguration xmlns:xsi="http://www.w3.org/2001/XMLSchema-instance" xsi:noNamespaceSchemaLocation="http://sumo.dlr.de/xsd/sumoConfiguration.xsd">

    <input>
        <net-file value="net.net.xml"/>
        <route-files value="input_routes.rou.xml"/>
    </input>

    <output>
        <tripinfo-output value="tripinfos.xml"/>
        <tripinfo-output.write-unfinished value="true"/>
        <vehroute-output value="vehroutes.xml"/>
        <vehroute-output.write-unfinished value="true"/>
        <stop-output value="stopinfos.xml"/>
    </output>

    <time>
        <end value="1000"/>
    </time>

    <report>
        <duration-log.disable value="true"/>
        <no-step-log value="true"/>
    </report>

    <taxi_device>
        <device.taxi.dispatch-period value="10"/>
        <device.taxi.idle-algorithm value="randomCircling"/>
    </taxi_device>

    <mesoscopic>
        <mesosim value="true"/>
    </mesoscopic>

</sumoConfiguration>
-->

<routes xmlns:xsi="http://www.w3.org/2001/XMLSchema-instance" xsi:noNamespaceSchemaLocation="http://sumo.dlr.de/xsd/routes_file.xsd">
    <person id="p0" depart="0.00" departPos="50.00" arrival="43.00">
        <ride from="C1B1" to="B1A1" arrivalPos="190.40" lines="taxi"/>
    </person>

    <vehicle id="v0" type="taxi" depart="0.00" departPos="0.00" departSpeed="14.3067" speedFactor="1.0300">
        <routeDistribution>
            <route replacedOnEdge="C0C1" reason="taxi:idling:randomCircling" replacedAtTime="0.00" probability="0" edges="C0C1 C1C2"/>
            <route replacedOnEdge="C0C1" reason="taxi:prepare_dispatch" replacedAtTime="0.00" probability="0" edges="C0C1 C1C2 C2C1 C1D1"/>
            <route replacedOnEdge="B1A1" replacedOnIndex="2" reason="taxi:idling:randomCircling" replacedAtTime="43.00" probability="0" edges="C0C1 C1B1 B1A1"/>
            <route replacedOnEdge="A1B1" replacedOnIndex="3" reason="taxi:idling:randomCircling" replacedAtTime="110.00" probability="0" edges="C0C1 C1B1 B1A1 A1B1 B1B2"/>
            <route replacedOnEdge="A1B1" replacedOnIndex="3" reason="taxi:idling:randomCircling" replacedAtTime="123.00" probability="0" edges="C0C1 C1B1 B1A1 A1B1 B1B2 B2A2"/>
            <route replacedOnEdge="B2A2" replacedOnIndex="5" reason="taxi:idling:randomCircling" replacedAtTime="136.00" probability="0" edges="C0C1 C1B1 B1A1 A1B1 B1B2 B2A2 A2A1"/>
            <route replacedOnEdge="B2A2" replacedOnIndex="5" reason="taxi:idling:randomCircling" replacedAtTime="149.00" probability="0" edges="C0C1 C1B1 B1A1 A1B1 B1B2 B2A2 A2A1 A1B1"/>
            <route replacedOnEdge="A1B1" replacedOnIndex="7" reason="taxi:idling:randomCircling" replacedAtTime="162.00" probability="0" edges="C0C1 C1B1 B1A1 A1B1 B1B2 B2A2 A2A1 A1B1 B1B2"/>
            <route replacedOnEdge="A1B1" replacedOnIndex="7" reason="taxi:idling:randomCircling" replacedAtTime="175.00" probability="0" edges="C0C1 C1B1 B1A1 A1B1 B1B2 B2A2 A2A1 A1B1 B1B2 B2A2"/>
            <route replacedOnEdge="B2A2" replacedOnIndex="9" reason="taxi:idling:randomCircling" replacedAtTime="188.00" probability="0" edges="C0C1 C1B1 B1A1 A1B1 B1B2 B2A2 A2A1 A1B1 B1B2 B2A2 A2A1"/>
            <route replacedOnEdge="B2A2" replacedOnIndex="9" reason="taxi:idling:randomCircling" replacedAtTime="201.00" probability="0" edges="C0C1 C1B1 B1A1 A1B1 B1B2 B2A2 A2A1 A1B1 B1B2 B2A2 A2A1 A1B1"/>
            <route replacedOnEdge="A1B1" replacedOnIndex="11" reason="taxi:idling:randomCircling" replacedAtTime="214.00" probability="0" edges="C0C1 C1B1 B1A1 A1B1 B1B2 B2A2 A2A1 A1B1 B1B2 B2A2 A2A1 A1B1 B1C1"/>
            <route replacedOnEdge="B1C1" replacedOnIndex="12" reason="taxi:idling:randomCircling" replacedAtTime="234.00" probability="0" edges="C0C1 C1B1 B1A1 A1B1 B1B2 B2A2 A2A1 A1B1 B1B2 B2A2 A2A1 A1B1 B1C1 C1C0"/>
            <route replacedOnEdge="B1C1" replacedOnIndex="12" reason="taxi:idling:randomCircling" replacedAtTime="247.00" probability="0" edges="C0C1 C1B1 B1A1 A1B1 B1B2 B2A2 A2A1 A1B1 B1B2 B2A2 A2A1 A1B1 B1C1 C1C0 C0B0"/>
            <route replacedOnEdge="C0B0" replacedOnIndex="14" reason="taxi:idling:randomCircling" replacedAtTime="260.00" probability="0" edges="C0C1 C1B1 B1A1 A1B1 B1B2 B2A2 A2A1 A1B1 B1B2 B2A2 A2A1 A1B1 B1C1 C1C0 C0B0 B0C0"/>
            <route replacedOnEdge="B0C0" replacedOnIndex="15" reason="taxi:idling:randomCircling" replacedAtTime="280.00" probability="0" edges="C0C1 C1B1 B1A1 A1B1 B1B2 B2A2 A2A1 A1B1 B1B2 B2A2 A2A1 A1B1 B1C1 C1C0 C0B0 B0C0 C0B0"/>
            <route replacedOnEdge="C0B0" replacedOnIndex="16" reason="taxi:idling:randomCircling" replacedAtTime="300.00" probability="0" edges="C0C1 C1B1 B1A1 A1B1 B1B2 B2A2 A2A1 A1B1 B1B2 B2A2 A2A1 A1B1 B1C1 C1C0 C0B0 B0C0 C0B0 B0C0"/>
            <route replacedOnEdge="B0C0" replacedOnIndex="17" reason="taxi:idling:randomCircling" replacedAtTime="320.00" probability="0" edges="C0C1 C1B1 B1A1 A1B1 B1B2 B2A2 A2A1 A1B1 B1B2 B2A2 A2A1 A1B1 B1C1 C1C0 C0B0 B0C0 C0B0 B0C0 C0B0"/>
            <route replacedOnEdge="C0B0" replacedOnIndex="18" reason="taxi:idling:randomCircling" replacedAtTime="340.00" probability="0" edges="C0C1 C1B1 B1A1 A1B1 B1B2 B2A2 A2A1 A1B1 B1B2 B2A2 A2A1 A1B1 B1C1 C1C0 C0B0 B0C0 C0B0 B0C0 C0B0 B0A0"/>
            <route replacedOnEdge="B0A0" replacedOnIndex="19" reason="taxi:idling:randomCircling" replacedAtTime="360.00" probability="0" edges="C0C1 C1B1 B1A1 A1B1 B1B2 B2A2 A2A1 A1B1 B1B2 B2A2 A2A1 A1B1 B1C1 C1C0 C0B0 B0C0 C0B0 B0C0 C0B0 B0A0 A0A1"/>
            <route replacedOnEdge="B0A0" replacedOnIndex="19" reason="taxi:idling:randomCircling" replacedAtTime="373.00" probability="0" edges="C0C1 C1B1 B1A1 A1B1 B1B2 B2A2 A2A1 A1B1 B1B2 B2A2 A2A1 A1B1 B1C1 C1C0 C0B0 B0C0 C0B0 B0C0 C0B0 B0A0 A0A1 A1A0"/>
            <route replacedOnEdge="A0A1" replacedOnIndex="20" reason="taxi:idling:randomCircling" replacedAtTime="380.00" probability="0" edges="C0C1 C1B1 B1A1 A1B1 B1B2 B2A2 A2A1 A1B1 B1B2 B2A2 A2A1 A1B1 B1C1 C1C0 C0B0 B0C0 C0B0 B0C0 C0B0 B0A0 A0A1 A1A0 A0B0"/>
            <route replacedOnEdge="A0B0" replacedOnIndex="22" reason="taxi:idling:randomCircling" replacedAtTime="392.00" probability="0" edges="C0C1 C1B1 B1A1 A1B1 B1B2 B2A2 A2A1 A1B1 B1B2 B2A2 A2A1 A1B1 B1C1 C1C0 C0B0 B0C0 C0B0 B0C0 C0B0 B0A0 A0A1 A1A0 A0B0 B0A0"/>
            <route replacedOnEdge="B0A0" replacedOnIndex="23" reason="taxi:idling:randomCircling" replacedAtTime="412.00" probability="0" edges="C0C1 C1B1 B1A1 A1B1 B1B2 B2A2 A2A1 A1B1 B1B2 B2A2 A2A1 A1B1 B1C1 C1C0 C0B0 B0C0 C0B0 B0C0 C0B0 B0A0 A0A1 A1A0 A0B0 B0A0 A0A1"/>
            <route replacedOnEdge="B0A0" replacedOnIndex="23" reason="taxi:idling:randomCircling" replacedAtTime="426.00" probability="0" edges="C0C1 C1B1 B1A1 A1B1 B1B2 B2A2 A2A1 A1B1 B1B2 B2A2 A2A1 A1B1 B1C1 C1C0 C0B0 B0C0 C0B0 B0C0 C0B0 B0A0 A0A1 A1A0 A0B0 B0A0 A0A1 A1A0"/>
            <route replacedOnEdge="A0A1" replacedOnIndex="24" reason="taxi:idling:randomCircling" replacedAtTime="432.00" probability="0" edges="C0C1 C1B1 B1A1 A1B1 B1B2 B2A2 A2A1 A1B1 B1B2 B2A2 A2A1 A1B1 B1C1 C1C0 C0B0 B0C0 C0B0 B0C0 C0B0 B0A0 A0A1 A1A0 A0B0 B0A0 A0A1 A1A0 A0B0"/>
            <route replacedOnEdge="A0B0" replacedOnIndex="26" reason="taxi:idling:randomCircling" replacedAtTime="445.00" probability="0" edges="C0C1 C1B1 B1A1 A1B1 B1B2 B2A2 A2A1 A1B1 B1B2 B2A2 A2A1 A1B1 B1C1 C1C0 C0B0 B0C0 C0B0 B0C0 C0B0 B0A0 A0A1 A1A0 A0B0 B0A0 A0A1 A1A0 A0B0 B0C0"/>
            <route replacedOnEdge="B0C0" replacedOnIndex="27" reason="taxi:idling:randomCircling" replacedAtTime="465.00" probability="0" edges="C0C1 C1B1 B1A1 A1B1 B1B2 B2A2 A2A1 A1B1 B1B2 B2A2 A2A1 A1B1 B1C1 C1C0 C0B0 B0C0 C0B0 B0C0 C0B0 B0A0 A0A1 A1A0 A0B0 B0A0 A0A1 A1A0 A0B0 B0C0 C0C1"/>
            <route replacedOnEdge="B0C0" replacedOnIndex="27" reason="taxi:idling:randomCircling" replacedAtTime="478.00" probability="0" edges="C0C1 C1B1 B1A1 A1B1 B1B2 B2A2 A2A1 A1B1 B1B2 B2A2 A2A1 A1B1 B1C1 C1C0 C0B0 B0C0 C0B0 B0C0 C0B0 B0A0 A0A1 A1A0 A0B0 B0A0 A0A1 A1A0 A0B0 B0C0 C0C1 C1D1"/>
            <route replacedOnEdge="C1D1" replacedOnIndex="29" reason="taxi:idling:randomCircling" replacedAtTime="491.00" probability="0" edges="C0C1 C1B1 B1A1 A1B1 B1B2 B2A2 A2A1 A1B1 B1B2 B2A2 A2A1 A1B1 B1C1 C1C0 C0B0 B0C0 C0B0 B0C0 C0B0 B0A0 A0A1 A1A0 A0B0 B0A0 A0A1 A1A0 A0B0 B0C0 C0C1 C1D1 D1C1"/>
            <route replacedOnEdge="D1C1" replacedOnIndex="30" reason="taxi:idling:randomCircling" replacedAtTime="511.00" probability="0" edges="C0C1 C1B1 B1A1 A1B1 B1B2 B2A2 A2A1 A1B1 B1B2 B2A2 A2A1 A1B1 B1C1 C1C0 C0B0 B0C0 C0B0 B0C0 C0B0 B0A0 A0A1 A1A0 A0B0 B0A0 A0A1 A1A0 A0B0 B0C0 C0C1 C1D1 D1C1 C1C2"/>
            <route replacedOnEdge="D1C1" replacedOnIndex="30" reason="taxi:idling:randomCircling" replacedAtTime="524.00" probability="0" edges="C0C1 C1B1 B1A1 A1B1 B1B2 B2A2 A2A1 A1B1 B1B2 B2A2 A2A1 A1B1 B1C1 C1C0 C0B0 B0C0 C0B0 B0C0 C0B0 B0A0 A0A1 A1A0 A0B0 B0A0 A0A1 A1A0 A0B0 B0C0 C0C1 C1D1 D1C1 C1C2 C2C1"/>
            <route replacedOnEdge="C1C2" replacedOnIndex="31" reason="taxi:idling:randomCircling" replacedAtTime="531.00" probability="0" edges="C0C1 C1B1 B1A1 A1B1 B1B2 B2A2 A2A1 A1B1 B1B2 B2A2 A2A1 A1B1 B1C1 C1C0 C0B0 B0C0 C0B0 B0C0 C0B0 B0A0 A0A1 A1A0 A0B0 B0A0 A0A1 A1A0 A0B0 B0C0 C0C1 C1D1 D1C1 C1C2 C2C1 C1C0"/>
            <route replacedOnEdge="C2C1" replacedOnIndex="32" reason="taxi:idling:randomCircling" replacedAtTime="537.00" probability="0" edges="C0C1 C1B1 B1A1 A1B1 B1B2 B2A2 A2A1 A1B1 B1B2 B2A2 A2A1 A1B1 B1C1 C1C0 C0B0 B0C0 C0B0 B0C0 C0B0 B0A0 A0A1 A1A0 A0B0 B0A0 A0A1 A1A0 A0B0 B0C0 C0C1 C1D1 D1C1 C1C2 C2C1 C1C0 C0B0"/>
            <route replacedOnEdge="C0B0" replacedOnIndex="34" reason="taxi:idling:randomCircling" replacedAtTime="548.00" probability="0" edges="C0C1 C1B1 B1A1 A1B1 B1B2 B2A2 A2A1 A1B1 B1B2 B2A2 A2A1 A1B1 B1C1 C1C0 C0B0 B0C0 C0B0 B0C0 C0B0 B0A0 A0A1 A1A0 A0B0 B0A0 A0A1 A1A0 A0B0 B0C0 C0C1 C1D1 D1C1 C1C2 C2C1 C1C0 C0B0 B0C0"/>
            <route replacedOnEdge="B0C0" replacedOnIndex="35" reason="taxi:idling:randomCircling" replacedAtTime="568.00" probability="0" edges="C0C1 C1B1 B1A1 A1B1 B1B2 B2A2 A2A1 A1B1 B1B2 B2A2 A2A1 A1B1 B1C1 C1C0 C0B0 B0C0 C0B0 B0C0 C0B0 B0A0 A0A1 A1A0 A0B0 B0A0 A0A1 A1A0 A0B0 B0C0 C0C1 C1D1 D1C1 C1C2 C2C1 C1C0 C0B0 B0C0 C0B0"/>
            <route replacedOnEdge="C0B0" replacedOnIndex="36" reason="taxi:idling:randomCircling" replacedAtTime="588.00" probability="0" edges="C0C1 C1B1 B1A1 A1B1 B1B2 B2A2 A2A1 A1B1 B1B2 B2A2 A2A1 A1B1 B1C1 C1C0 C0B0 B0C0 C0B0 B0C0 C0B0 B0A0 A0A1 A1A0 A0B0 B0A0 A0A1 A1A0 A0B0 B0C0 C0C1 C1D1 D1C1 C1C2 C2C1 C1C0 C0B0 B0C0 C0B0 B0C0"/>
            <route replacedOnEdge="B0C0" replacedOnIndex="37" reason="taxi:idling:randomCircling" replacedAtTime="608.00" probability="0" edges="C0C1 C1B1 B1A1 A1B1 B1B2 B2A2 A2A1 A1B1 B1B2 B2A2 A2A1 A1B1 B1C1 C1C0 C0B0 B0C0 C0B0 B0C0 C0B0 B0A0 A0A1 A1A0 A0B0 B0A0 A0A1 A1A0 A0B0 B0C0 C0C1 C1D1 D1C1 C1C2 C2C1 C1C0 C0B0 B0C0 C0B0 B0C0 C0D0"/>
            <route replacedOnEdge="C0D0" replacedOnIndex="38" reason="taxi:idling:randomCircling" replacedAtTime="628.00" probability="0" edges="C0C1 C1B1 B1A1 A1B1 B1B2 B2A2 A2A1 A1B1 B1B2 B2A2 A2A1 A1B1 B1C1 C1C0 C0B0 B0C0 C0B0 B0C0 C0B0 B0A0 A0A1 A1A0 A0B0 B0A0 A0A1 A1A0 A0B0 B0C0 C0C1 C1D1 D1C1 C1C2 C2C1 C1C0 C0B0 B0C0 C0B0 B0C0 C0D0 D0E0"/>
            <route replacedOnEdge="D0E0" replacedOnIndex="39" reason="taxi:idling:randomCircling" replacedAtTime="648.00" probability="0" edges="C0C1 C1B1 B1A1 A1B1 B1B2 B2A2 A2A1 A1B1 B1B2 B2A2 A2A1 A1B1 B1C1 C1C0 C0B0 B0C0 C0B0 B0C0 C0B0 B0A0 A0A1 A1A0 A0B0 B0A0 A0A1 A1A0 A0B0 B0C0 C0C1 C1D1 D1C1 C1C2 C2C1 C1C0 C0B0 B0C0 C0B0 B0C0 C0D0 D0E0 E0E1"/>
            <route replacedOnEdge="D0E0" replacedOnIndex="39" reason="taxi:idling:randomCircling" replacedAtTime="662.00" probability="0" edges="C0C1 C1B1 B1A1 A1B1 B1B2 B2A2 A2A1 A1B1 B1B2 B2A2 A2A1 A1B1 B1C1 C1C0 C0B0 B0C0 C0B0 B0C0 C0B0 B0A0 A0A1 A1A0 A0B0 B0A0 A0A1 A1A0 A0B0 B0C0 C0C1 C1D1 D1C1 C1C2 C2C1 C1C0 C0B0 B0C0 C0B0 B0C0 C0D0 D0E0 E0E1 E1E0"/>
            <route replacedOnEdge="E0E1" replacedOnIndex="40" reason="taxi:idling:randomCircling" replacedAtTime="668.00" probability="0" edges="C0C1 C1B1 B1A1 A1B1 B1B2 B2A2 A2A1 A1B1 B1B2 B2A2 A2A1 A1B1 B1C1 C1C0 C0B0 B0C0 C0B0 B0C0 C0B0 B0A0 A0A1 A1A0 A0B0 B0A0 A0A1 A1A0 A0B0 B0C0 C0C1 C1D1 D1C1 C1C2 C2C1 C1C0 C0B0 B0C0 C0B0 B0C0 C0D0 D0E0 E0E1 E1E0 E0E1"/>
            <route replacedOnEdge="E1E0" replacedOnIndex="41" reason="taxi:idling:randomCircling" replacedAtTime="674.00" probability="0" edges="C0C1 C1B1 B1A1 A1B1 B1B2 B2A2 A2A1 A1B1 B1B2 B2A2 A2A1 A1B1 B1C1 C1C0 C0B0 B0C0 C0B0 B0C0 C0B0 B0A0 A0A1 A1A0 A0B0 B0A0 A0A1 A1A0 A0B0 B0C0 C0C1 C1D1 D1C1 C1C2 C2C1 C1C0 C0B0 B0C0 C0B0 B0C0 C0D0 D0E0 E0E1 E1E0 E0E1 E1E2"/>
            <route replacedOnEdge="E0E1" replacedOnIndex="42" reason="taxi:idling:randomCircling" replacedAtTime="680.00" probability="0" edges="C0C1 C1B1 B1A1 A1B1 B1B2 B2A2 A2A1 A1B1 B1B2 B2A2 A2A1 A1B1 B1C1 C1C0 C0B0 B0C0 C0B0 B0C0 C0B0 B0A0 A0A1 A1A0 A0B0 B0A0 A0A1 A1A0 A0B0 B0C0 C0C1 C1D1 D1C1 C1C2 C2C1 C1C0 C0B0 B0C0 C0B0 B0C0 C0D0 D0E0 E0E1 E1E0 E0E1 E1E2 E2F2"/>
            <route replacedOnEdge="E2F2" replacedOnIndex="44" reason="taxi:idling:randomCircling" replacedAtTime="692.00" probability="0" edges="C0C1 C1B1 B1A1 A1B1 B1B2 B2A2 A2A1 A1B1 B1B2 B2A2 A2A1 A1B1 B1C1 C1C0 C0B0 B0C0 C0B0 B0C0 C0B0 B0A0 A0A1 A1A0 A0B0 B0A0 A0A1 A1A0 A0B0 B0C0 C0C1 C1D1 D1C1 C1C2 C2C1 C1C0 C0B0 B0C0 C0B0 B0C0 C0D0 D0E0 E0E1 E1E0 E0E1 E1E2 E2F2 F2F1"/>
            <route replacedOnEdge="E2F2" replacedOnIndex="44" reason="taxi:idling:randomCircling" replacedAtTime="706.00" probability="0" edges="C0C1 C1B1 B1A1 A1B1 B1B2 B2A2 A2A1 A1B1 B1B2 B2A2 A2A1 A1B1 B1C1 C1C0 C0B0 B0C0 C0B0 B0C0 C0B0 B0A0 A0A1 A1A0 A0B0 B0A0 A0A1 A1A0 A0B0 B0C0 C0C1 C1D1 D1C1 C1C2 C2C1 C1C0 C0B0 B0C0 C0B0 B0C0 C0D0 D0E0 E0E1 E1E0 E0E1 E1E2 E2F2 F2F1 F1E1"/>
            <route replacedOnEdge="F1E1" replacedOnIndex="46" reason="taxi:idling:randomCircling" replacedAtTime="718.00" probability="0" edges="C0C1 C1B1 B1A1 A1B1 B1B2 B2A2 A2A1 A1B1 B1B2 B2A2 A2A1 A1B1 B1C1 C1C0 C0B0 B0C0 C0B0 B0C0 C0B0 B0A0 A0A1 A1A0 A0B0 B0A0 A0A1 A1A0 A0B0 B0C0 C0C1 C1D1 D1C1 C1C2 C2C1 C1C0 C0B0 B0C0 C0B0 B0C0 C0D0 D0E0 E0E1 E1E0 E0E1 E1E2 E2F2 F2F1 F1E1 E1E2"/>
            <route replacedOnEdge="F1E1" replacedOnIndex="46" reason="taxi:idling:randomCircling" replacedAtTime="732.00" probability="0" edges="C0C1 C1B1 B1A1 A1B1 B1B2 B2A2 A2A1 A1B1 B1B2 B2A2 A2A1 A1B1 B1C1 C1C0 C0B0 B0C0 C0B0 B0C0 C0B0 B0A0 A0A1 A1A0 A0B0 B0A0 A0A1 A1A0 A0B0 B0C0 C0C1 C1D1 D1C1 C1C2 C2C1 C1C0 C0B0 B0C0 C0B0 B0C0 C0D0 D0E0 E0E1 E1E0 E0E1 E1E2 E2F2 F2F1 F1E1 E1E2 E2F2"/>
            <route replacedOnEdge="E2F2" replacedOnIndex="48" reason="taxi:idling:randomCircling" replacedAtTime="744.00" probability="0" edges="C0C1 C1B1 B1A1 A1B1 B1B2 B2A2 A2A1 A1B1 B1B2 B2A2 A2A1 A1B1 B1C1 C1C0 C0B0 B0C0 C0B0 B0C0 C0B0 B0A0 A0A1 A1A0 A0B0 B0A0 A0A1 A1A0 A0B0 B0C0 C0C1 C1D1 D1C1 C1C2 C2C1 C1C0 C0B0 B0C0 C0B0 B0C0 C0D0 D0E0 E0E1 E1E0 E0E1 E1E2 E2F2 F2F1 F1E1 E1E2 E2F2 F2F1"/>
            <route replacedOnEdge="E2F2" replacedOnIndex="48" reason="taxi:idling:randomCircling" replacedAtTime="758.00" probability="0" edges="C0C1 C1B1 B1A1 A1B1 B1B2 B2A2 A2A1 A1B1 B1B2 B2A2 A2A1 A1B1 B1C1 C1C0 C0B0 B0C0 C0B0 B0C0 C0B0 B0A0 A0A1 A1A0 A0B0 B0A0 A0A1 A1A0 A0B0 B0C0 C0C1 C1D1 D1C1 C1C2 C2C1 C1C0 C0B0 B0C0 C0B0 B0C0 C0D0 D0E0 E0E1 E1E0 E0E1 E1E2 E2F2 F2F1 F1E1 E1E2 E2F2 F2F1 F1E1"/>
            <route replacedOnEdge="F1E1" replacedOnIndex="50" reason="taxi:idling:randomCircling" replacedAtTime="771.00" probability="0" edges="C0C1 C1B1 B1A1 A1B1 B1B2 B2A2 A2A1 A1B1 B1B2 B2A2 A2A1 A1B1 B1C1 C1C0 C0B0 B0C0 C0B0 B0C0 C0B0 B0A0 A0A1 A1A0 A0B0 B0A0 A0A1 A1A0 A0B0 B0C0 C0C1 C1D1 D1C1 C1C2 C2C1 C1C0 C0B0 B0C0 C0B0 B0C0 C0D0 D0E0 E0E1 E1E0 E0E1 E1E2 E2F2 F2F1 F1E1 E1E2 E2F2 F2F1 F1E1 E1D1"/>
            <route replacedOnEdge="E1D1" replacedOnIndex="51" reason="taxi:idling:randomCircling" replacedAtTime="791.00" probability="0" edges="C0C1 C1B1 B1A1 A1B1 B1B2 B2A2 A2A1 A1B1 B1B2 B2A2 A2A1 A1B1 B1C1 C1C0 C0B0 B0C0 C0B0 B0C0 C0B0 B0A0 A0A1 A1A0 A0B0 B0A0 A0A1 A1A0 A0B0 B0C0 C0C1 C1D1 D1C1 C1C2 C2C1 C1C0 C0B0 B0C0 C0B0 B0C0 C0D0 D0E0 E0E1 E1E0 E0E1 E1E2 E2F2 F2F1 F1E1 E1E2 E2F2 F2F1 F1E1 E1D1 D1E1"/>
            <route replacedOnEdge="D1E1" replacedOnIndex="52" reason="taxi:idling:randomCircling" replacedAtTime="811.00" probability="0" edges="C0C1 C1B1 B1A1 A1B1 B1B2 B2A2 A2A1 A1B1 B1B2 B2A2 A2A1 A1B1 B1C1 C1C0 C0B0 B0C0 C0B0 B0C0 C0B0 B0A0 A0A1 A1A0 A0B0 B0A0 A0A1 A1A0 A0B0 B0C0 C0C1 C1D1 D1C1 C1C2 C2C1 C1C0 C0B0 B0C0 C0B0 B0C0 C0D0 D0E0 E0E1 E1E0 E0E1 E1E2 E2F2 F2F1 F1E1 E1E2 E2F2 F2F1 F1E1 E1D1 D1E1 E1E0"/>
            <route replacedOnEdge="D1E1" replacedOnIndex="52" reason="taxi:idling:randomCircling" replacedAtTime="824.00" probability="0" edges="C0C1 C1B1 B1A1 A1B1 B1B2 B2A2 A2A1 A1B1 B1B2 B2A2 A2A1 A1B1 B1C1 C1C0 C0B0 B0C0 C0B0 B0C0 C0B0 B0A0 A0A1 A1A0 A0B0 B0A0 A0A1 A1A0 A0B0 B0C0 C0C1 C1D1 D1C1 C1C2 C2C1 C1C0 C0B0 B0C0 C0B0 B0C0 C0D0 D0E0 E0E1 E1E0 E0E1 E1E2 E2F2 F2F1 F1E1 E1E2 E2F2 F2F1 F1E1 E1D1 D1E1 E1E0 E0F0"/>
            <route replacedOnEdge="E0F0" replacedOnIndex="54" reason="taxi:idling:randomCircling" replacedAtTime="837.00" probability="0" edges="C0C1 C1B1 B1A1 A1B1 B1B2 B2A2 A2A1 A1B1 B1B2 B2A2 A2A1 A1B1 B1C1 C1C0 C0B0 B0C0 C0B0 B0C0 C0B0 B0A0 A0A1 A1A0 A0B0 B0A0 A0A1 A1A0 A0B0 B0C0 C0C1 C1D1 D1C1 C1C2 C2C1 C1C0 C0B0 B0C0 C0B0 B0C0 C0D0 D0E0 E0E1 E1E0 E0E1 E1E2 E2F2 F2F1 F1E1 E1E2 E2F2 F2F1 F1E1 E1D1 D1E1 E1E0 E0F0 F0F1"/>
            <route replacedOnEdge="E0F0" replacedOnIndex="54" reason="taxi:idling:randomCircling" replacedAtTime="850.00" probability="0" edges="C0C1 C1B1 B1A1 A1B1 B1B2 B2A2 A2A1 A1B1 B1B2 B2A2 A2A1 A1B1 B1C1 C1C0 C0B0 B0C0 C0B0 B0C0 C0B0 B0A0 A0A1 A1A0 A0B0 B0A0 A0A1 A1A0 A0B0 B0C0 C0C1 C1D1 D1C1 C1C2 C2C1 C1C0 C0B0 B0C0 C0B0 B0C0 C0D0 D0E0 E0E1 E1E0 E0E1 E1E2 E2F2 F2F1 F1E1 E1E2 E2F2 F2F1 F1E1 E1D1 D1E1 E1E0 E0F0 F0F1 F1F2"/>
            <route replacedOnEdge="F0F1" replacedOnIndex="55" reason="taxi:idling:randomCircling" replacedAtTime="857.00" probability="0" edges="C0C1 C1B1 B1A1 A1B1 B1B2 B2A2 A2A1 A1B1 B1B2 B2A2 A2A1 A1B1 B1C1 C1C0 C0B0 B0C0 C0B0 B0C0 C0B0 B0A0 A0A1 A1A0 A0B0 B0A0 A0A1 A1A0 A0B0 B0C0 C0C1 C1D1 D1C1 C1C2 C2C1 C1C0 C0B0 B0C0 C0B0 B0C0 C0D0 D0E0 E0E1 E1E0 E0E1 E1E2 E2F2 F2F1 F1E1 E1E2 E2F2 F2F1 F1E1 E1D1 D1E1 E1E0 E0F0 F0F1 F1F2 F2E2"/>
            <route replacedOnEdge="F2E2" replacedOnIndex="57" reason="taxi:idling:randomCircling" replacedAtTime="869.00" probability="0" edges="C0C1 C1B1 B1A1 A1B1 B1B2 B2A2 A2A1 A1B1 B1B2 B2A2 A2A1 A1B1 B1C1 C1C0 C0B0 B0C0 C0B0 B0C0 C0B0 B0A0 A0A1 A1A0 A0B0 B0A0 A0A1 A1A0 A0B0 B0C0 C0C1 C1D1 D1C1 C1C2 C2C1 C1C0 C0B0 B0C0 C0B0 B0C0 C0D0 D0E0 E0E1 E1E0 E0E1 E1E2 E2F2 F2F1 F1E1 E1E2 E2F2 F2F1 F1E1 E1D1 D1E1 E1E0 E0F0 F0F1 F1F2 F2E2 E2F2"/>
            <route replacedOnEdge="E2F2" replacedOnIndex="58" reason="taxi:idling:randomCircling" replacedAtTime="889.00" probability="0" edges="C0C1 C1B1 B1A1 A1B1 B1B2 B2A2 A2A1 A1B1 B1B2 B2A2 A2A1 A1B1 B1C1 C1C0 C0B0 B0C0 C0B0 B0C0 C0B0 B0A0 A0A1 A1A0 A0B0 B0A0 A0A1 A1A0 A0B0 B0C0 C0C1 C1D1 D1C1 C1C2 C2C1 C1C0 C0B0 B0C0 C0B0 B0C0 C0D0 D0E0 E0E1 E1E0 E0E1 E1E2 E2F2 F2F1 F1E1 E1E2 E2F2 F2F1 F1E1 E1D1 D1E1 E1E0 E0F0 F0F1 F1F2 F2E2 E2F2 F2F1"/>
            <route replacedOnEdge="E2F2" replacedOnIndex="58" reason="taxi:idling:randomCircling" replacedAtTime="902.00" probability="0" edges="C0C1 C1B1 B1A1 A1B1 B1B2 B2A2 A2A1 A1B1 B1B2 B2A2 A2A1 A1B1 B1C1 C1C0 C0B0 B0C0 C0B0 B0C0 C0B0 B0A0 A0A1 A1A0 A0B0 B0A0 A0A1 A1A0 A0B0 B0C0 C0C1 C1D1 D1C1 C1C2 C2C1 C1C0 C0B0 B0C0 C0B0 B0C0 C0D0 D0E0 E0E1 E1E0 E0E1 E1E2 E2F2 F2F1 F1E1 E1E2 E2F2 F2F1 F1E1 E1D1 D1E1 E1E0 E0F0 F0F1 F1F2 F2E2 E2F2 F2F1 F1F0"/>
            <route replacedOnEdge="F2F1" replacedOnIndex="59" reason="taxi:idling:randomCircling" replacedAtTime="909.00" probability="0" edges="C0C1 C1B1 B1A1 A1B1 B1B2 B2A2 A2A1 A1B1 B1B2 B2A2 A2A1 A1B1 B1C1 C1C0 C0B0 B0C0 C0B0 B0C0 C0B0 B0A0 A0A1 A1A0 A0B0 B0A0 A0A1 A1A0 A0B0 B0C0 C0C1 C1D1 D1C1 C1C2 C2C1 C1C0 C0B0 B0C0 C0B0 B0C0 C0D0 D0E0 E0E1 E1E0 E0E1 E1E2 E2F2 F2F1 F1E1 E1E2 E2F2 F2F1 F1E1 E1D1 D1E1 E1E0 E0F0 F0F1 F1F2 F2E2 E2F2 F2F1 F1F0 F0E0"/>
            <route replacedOnEdge="F0E0" replacedOnIndex="61" reason="taxi:idling:randomCircling" replacedAtTime="921.00" probability="0" edges="C0C1 C1B1 B1A1 A1B1 B1B2 B2A2 A2A1 A1B1 B1B2 B2A2 A2A1 A1B1 B1C1 C1C0 C0B0 B0C0 C0B0 B0C0 C0B0 B0A0 A0A1 A1A0 A0B0 B0A0 A0A1 A1A0 A0B0 B0C0 C0C1 C1D1 D1C1 C1C2 C2C1 C1C0 C0B0 B0C0 C0B0 B0C0 C0D0 D0E0 E0E1 E1E0 E0E1 E1E2 E2F2 F2F1 F1E1 E1E2 E2F2 F2F1 F1E1 E1D1 D1E1 E1E0 E0F0 F0F1 F1F2 F2E2 E2F2 F2F1 F1F0 F0E0 E0D0"/>
            <route replacedOnEdge="E0D0" replacedOnIndex="62" reason="taxi:idling:randomCircling" replacedAtTime="941.00" probability="0" edges="C0C1 C1B1 B1A1 A1B1 B1B2 B2A2 A2A1 A1B1 B1B2 B2A2 A2A1 A1B1 B1C1 C1C0 C0B0 B0C0 C0B0 B0C0 C0B0 B0A0 A0A1 A1A0 A0B0 B0A0 A0A1 A1A0 A0B0 B0C0 C0C1 C1D1 D1C1 C1C2 C2C1 C1C0 C0B0 B0C0 C0B0 B0C0 C0D0 D0E0 E0E1 E1E0 E0E1 E1E2 E2F2 F2F1 F1E1 E1E2 E2F2 F2F1 F1E1 E1D1 D1E1 E1E0 E0F0 F0F1 F1F2 F2E2 E2F2 F2F1 F1F0 F0E0 E0D0 D0D1"/>
            <route replacedOnEdge="E0D0" replacedOnIndex="62" reason="taxi:idling:randomCircling" replacedAtTime="955.00" probability="0" edges="C0C1 C1B1 B1A1 A1B1 B1B2 B2A2 A2A1 A1B1 B1B2 B2A2 A2A1 A1B1 B1C1 C1C0 C0B0 B0C0 C0B0 B0C0 C0B0 B0A0 A0A1 A1A0 A0B0 B0A0 A0A1 A1A0 A0B0 B0C0 C0C1 C1D1 D1C1 C1C2 C2C1 C1C0 C0B0 B0C0 C0B0 B0C0 C0D0 D0E0 E0E1 E1E0 E0E1 E1E2 E2F2 F2F1 F1E1 E1E2 E2F2 F2F1 F1E1 E1D1 D1E1 E1E0 E0F0 F0F1 F1F2 F2E2 E2F2 F2F1 F1F0 F0E0 E0D0 D0D1 D1E1"/>
            <route replacedOnEdge="D1E1" replacedOnIndex="64" reason="taxi:idling:randomCircling" replacedAtTime="967.00" probability="0" edges="C0C1 C1B1 B1A1 A1B1 B1B2 B2A2 A2A1 A1B1 B1B2 B2A2 A2A1 A1B1 B1C1 C1C0 C0B0 B0C0 C0B0 B0C0 C0B0 B0A0 A0A1 A1A0 A0B0 B0A0 A0A1 A1A0 A0B0 B0C0 C0C1 C1D1 D1C1 C1C2 C2C1 C1C0 C0B0 B0C0 C0B0 B0C0 C0D0 D0E0 E0E1 E1E0 E0E1 E1E2 E2F2 F2F1 F1E1 E1E2 E2F2 F2F1 F1E1 E1D1 D1E1 E1E0 E0F0 F0F1 F1F2 F2E2 E2F2 F2F1 F1F0 F0E0 E0D0 D0D1 D1E1 E1E0"/>
            <route replacedOnEdge="D1E1" replacedOnIndex="64" reason="taxi:idling:randomCircling" replacedAtTime="981.00" probability="0" edges="C0C1 C1B1 B1A1 A1B1 B1B2 B2A2 A2A1 A1B1 B1B2 B2A2 A2A1 A1B1 B1C1 C1C0 C0B0 B0C0 C0B0 B0C0 C0B0 B0A0 A0A1 A1A0 A0B0 B0A0 A0A1 A1A0 A0B0 B0C0 C0C1 C1D1 D1C1 C1C2 C2C1 C1C0 C0B0 B0C0 C0B0 B0C0 C0D0 D0E0 E0E1 E1E0 E0E1 E1E2 E2F2 F2F1 F1E1 E1E2 E2F2 F2F1 F1E1 E1D1 D1E1 E1E0 E0F0 F0F1 F1F2 F2E2 E2F2 F2F1 F1F0 F0E0 E0D0 D0D1 D1E1 E1E0 E0E1"/>
            <route replacedOnEdge="E1E0" replacedOnIndex="65" reason="taxi:idling:randomCircling" replacedAtTime="987.00" probability="0" edges="C0C1 C1B1 B1A1 A1B1 B1B2 B2A2 A2A1 A1B1 B1B2 B2A2 A2A1 A1B1 B1C1 C1C0 C0B0 B0C0 C0B0 B0C0 C0B0 B0A0 A0A1 A1A0 A0B0 B0A0 A0A1 A1A0 A0B0 B0C0 C0C1 C1D1 D1C1 C1C2 C2C1 C1C0 C0B0 B0C0 C0B0 B0C0 C0D0 D0E0 E0E1 E1E0 E0E1 E1E2 E2F2 F2F1 F1E1 E1E2 E2F2 F2F1 F1E1 E1D1 D1E1 E1E0 E0F0 F0F1 F1F2 F2E2 E2F2 F2F1 F1F0 F0E0 E0D0 D0D1 D1E1 E1E0 E0E1 E1D1"/>
            <route replacedOnEdge="E1D1" replacedOnIndex="67" reason="taxi:idling:randomCircling" replacedAtTime="999.00" probability="0" edges="C0C1 C1B1 B1A1 A1B1 B1B2 B2A2 A2A1 A1B1 B1B2 B2A2 A2A1 A1B1 B1C1 C1C0 C0B0 B0C0 C0B0 B0C0 C0B0 B0A0 A0A1 A1A0 A0B0 B0A0 A0A1 A1A0 A0B0 B0C0 C0C1 C1D1 D1C1 C1C2 C2C1 C1C0 C0B0 B0C0 C0B0 B0C0 C0D0 D0E0 E0E1 E1E0 E0E1 E1E2 E2F2 F2F1 F1E1 E1E2 E2F2 F2F1 F1E1 E1D1 D1E1 E1E0 E0F0 F0F1 F1F2 F2E2 E2F2 F2F1 F1F0 F0E0 E0D0 D0D1 D1E1 E1E0 E0E1 E1D1 D1D0"/>
            <route edges="C0C1 C1B1 B1A1 A1B1 B1B2 B2A2 A2A1 A1B1 B1B2 B2A2 A2A1 A1B1 B1C1 C1C0 C0B0 B0C0 C0B0 B0C0 C0B0 B0A0 A0A1 A1A0 A0B0 B0A0 A0A1 A1A0 A0B0 B0C0 C0C1 C1D1 D1C1 C1C2 C2C1 C1C0 C0B0 B0C0 C0B0 B0C0 C0D0 D0E0 E0E1 E1E0 E0E1 E1E2 E2F2 F2F1 F1E1 E1E2 E2F2 F2F1 F1E1 E1D1 D1E1 E1E0 E0F0 F0F1 F1F2 F2E2 E2F2 F2F1 F1F0 F0E0 E0D0 D0D1 D1E1 E1E0 E0E1 E1D1 D1D0 D0D1"/>
        </routeDistribution>
        <stop lane="C1B1_1" permitted="p0" actType="pickup p0 (0)"/>
        <stop lane="B1A1_1" actType="dropOff p0 (0)"/>
    </vehicle>

    <vehicle id="v1" type="taxi" depart="0.00" departPos="0.00" departSpeed="13.4612" speedFactor="0.9692">
        <routeDistribution>
            <route replacedOnEdge="C2C1" reason="taxi:idling:randomCircling" replacedAtTime="0.00" probability="0" edges="C2C1 C1B1"/>
            <route replacedOnEdge="C1B1" replacedOnIndex="1" reason="taxi:idling:randomCircling" replacedAtTime="7.00" probability="0" edges="C2C1 C1B1 B1C1"/>
            <route replacedOnEdge="B1C1" replacedOnIndex="2" reason="taxi:idling:randomCircling" replacedAtTime="28.00" probability="0" edges="C2C1 C1B1 B1C1 C1C0"/>
            <route replacedOnEdge="B1C1" replacedOnIndex="2" reason="taxi:idling:randomCircling" replacedAtTime="42.00" probability="0" edges="C2C1 C1B1 B1C1 C1C0 C0B0"/>
            <route replacedOnEdge="C0B0" replacedOnIndex="4" reason="taxi:idling:randomCircling" replacedAtTime="56.00" probability="0" edges="C2C1 C1B1 B1C1 C1C0 C0B0 B0B1"/>
            <route replacedOnEdge="C0B0" replacedOnIndex="4" reason="taxi:idling:randomCircling" replacedAtTime="70.00" probability="0" edges="C2C1 C1B1 B1C1 C1C0 C0B0 B0B1 B1B2"/>
            <route replacedOnEdge="B0B1" replacedOnIndex="5" reason="taxi:idling:randomCircling" replacedAtTime="77.00" probability="0" edges="C2C1 C1B1 B1C1 C1C0 C0B0 B0B1 B1B2 B2C2"/>
            <route replacedOnEdge="B2C2" replacedOnIndex="7" reason="taxi:idling:randomCircling" replacedAtTime="90.00" probability="0" edges="C2C1 C1B1 B1C1 C1C0 C0B0 B0B1 B1B2 B2C2 C2B2"/>
            <route replacedOnEdge="C2B2" replacedOnIndex="8" reason="taxi:idling:randomCircling" replacedAtTime="111.00" probability="0" edges="C2C1 C1B1 B1C1 C1C0 C0B0 B0B1 B1B2 B2C2 C2B2 B2A2"/>
            <route replacedOnEdge="B2A2" replacedOnIndex="9" reason="taxi:idling:randomCircling" replacedAtTime="132.00" probability="0" edges="C2C1 C1B1 B1C1 C1C0 C0B0 B0B1 B1B2 B2C2 C2B2 B2A2 A2A1"/>
            <route replacedOnEdge="B2A2" replacedOnIndex="9" reason="taxi:idling:randomCircling" replacedAtTime="146.00" probability="0" edges="C2C1 C1B1 B1C1 C1C0 C0B0 B0B1 B1B2 B2C2 C2B2 B2A2 A2A1 A1A2"/>
            <route replacedOnEdge="A2A1" replacedOnIndex="10" reason="taxi:idling:randomCircling" replacedAtTime="153.00" probability="0" edges="C2C1 C1B1 B1C1 C1C0 C0B0 B0B1 B1B2 B2C2 C2B2 B2A2 A2A1 A1A2 A2B2"/>
            <route replacedOnEdge="A2B2" replacedOnIndex="12" reason="taxi:idling:randomCircling" replacedAtTime="166.00" probability="0" edges="C2C1 C1B1 B1C1 C1C0 C0B0 B0B1 B1B2 B2C2 C2B2 B2A2 A2A1 A1A2 A2B2 B2C2"/>
            <route replacedOnEdge="B2C2" replacedOnIndex="13" reason="taxi:idling:randomCircling" replacedAtTime="188.00" probability="0" edges="C2C1 C1B1 B1C1 C1C0 C0B0 B0B1 B1B2 B2C2 C2B2 B2A2 A2A1 A1A2 A2B2 B2C2 C2B2"/>
            <route replacedOnEdge="C2B2" replacedOnIndex="14" reason="taxi:idling:randomCircling" replacedAtTime="209.00" probability="0" edges="C2C1 C1B1 B1C1 C1C0 C0B0 B0B1 B1B2 B2C2 C2B2 B2A2 A2A1 A1A2 A2B2 B2C2 C2B2 B2C2"/>
            <route replacedOnEdge="B2C2" replacedOnIndex="15" reason="taxi:idling:randomCircling" replacedAtTime="230.00" probability="0" edges="C2C1 C1B1 B1C1 C1C0 C0B0 B0B1 B1B2 B2C2 C2B2 B2A2 A2A1 A1A2 A2B2 B2C2 C2B2 B2C2 C2C1"/>
            <route replacedOnEdge="B2C2" replacedOnIndex="15" reason="taxi:idling:randomCircling" replacedAtTime="244.00" probability="0" edges="C2C1 C1B1 B1C1 C1C0 C0B0 B0B1 B1B2 B2C2 C2B2 B2A2 A2A1 A1A2 A2B2 B2C2 C2B2 B2C2 C2C1 C1D1"/>
            <route replacedOnEdge="C1D1" replacedOnIndex="17" reason="taxi:idling:randomCircling" replacedAtTime="258.00" probability="0" edges="C2C1 C1B1 B1C1 C1C0 C0B0 B0B1 B1B2 B2C2 C2B2 B2A2 A2A1 A1A2 A2B2 B2C2 C2B2 B2C2 C2C1 C1D1 D1D0"/>
            <route replacedOnEdge="C1D1" replacedOnIndex="17" reason="taxi:idling:randomCircling" replacedAtTime="272.00" probability="0" edges="C2C1 C1B1 B1C1 C1C0 C0B0 B0B1 B1B2 B2C2 C2B2 B2A2 A2A1 A1A2 A2B2 B2C2 C2B2 B2C2 C2C1 C1D1 D1D0 D0D1"/>
            <route replacedOnEdge="D1D0" replacedOnIndex="18" reason="taxi:idling:randomCircling" replacedAtTime="279.00" probability="0" edges="C2C1 C1B1 B1C1 C1C0 C0B0 B0B1 B1B2 B2C2 C2B2 B2A2 A2A1 A1A2 A2B2 B2C2 C2B2 B2C2 C2C1 C1D1 D1D0 D0D1 D1E1"/>
            <route replacedOnEdge="D1E1" replacedOnIndex="20" reason="taxi:idling:randomCircling" replacedAtTime="292.00" probability="0" edges="C2C1 C1B1 B1C1 C1C0 C0B0 B0B1 B1B2 B2C2 C2B2 B2A2 A2A1 A1A2 A2B2 B2C2 C2B2 B2C2 C2C1 C1D1 D1D0 D0D1 D1E1 E1E0"/>
            <route replacedOnEdge="D1E1" replacedOnIndex="20" reason="taxi:idling:randomCircling" replacedAtTime="306.00" probability="0" edges="C2C1 C1B1 B1C1 C1C0 C0B0 B0B1 B1B2 B2C2 C2B2 B2A2 A2A1 A1A2 A2B2 B2C2 C2B2 B2C2 C2C1 C1D1 D1D0 D0D1 D1E1 E1E0 E0F0"/>
            <route replacedOnEdge="E0F0" replacedOnIndex="22" reason="taxi:idling:randomCircling" replacedAtTime="319.00" probability="0" edges="C2C1 C1B1 B1C1 C1C0 C0B0 B0B1 B1B2 B2C2 C2B2 B2A2 A2A1 A1A2 A2B2 B2C2 C2B2 B2C2 C2C1 C1D1 D1D0 D0D1 D1E1 E1E0 E0F0 F0F1"/>
            <route replacedOnEdge="E0F0" replacedOnIndex="22" reason="taxi:idling:randomCircling" replacedAtTime="334.00" probability="0" edges="C2C1 C1B1 B1C1 C1C0 C0B0 B0B1 B1B2 B2C2 C2B2 B2A2 A2A1 A1A2 A2B2 B2C2 C2B2 B2C2 C2C1 C1D1 D1D0 D0D1 D1E1 E1E0 E0F0 F0F1 F1F0"/>
            <route replacedOnEdge="F0F1" replacedOnIndex="23" reason="taxi:idling:randomCircling" replacedAtTime="341.00" probability="0" edges="C2C1 C1B1 B1C1 C1C0 C0B0 B0B1 B1B2 B2C2 C2B2 B2A2 A2A1 A1A2 A2B2 B2C2 C2B2 B2C2 C2C1 C1D1 D1D0 D0D1 D1E1 E1E0 E0F0 F0F1 F1F0 F0E0"/>
            <route replacedOnEdge="F0E0" replacedOnIndex="25" reason="taxi:idling:randomCircling" replacedAtTime="354.00" probability="0" edges="C2C1 C1B1 B1C1 C1C0 C0B0 B0B1 B1B2 B2C2 C2B2 B2A2 A2A1 A1A2 A2B2 B2C2 C2B2 B2C2 C2C1 C1D1 D1D0 D0D1 D1E1 E1E0 E0F0 F0F1 F1F0 F0E0 E0D0"/>