<?xml version="1.0" encoding="UTF-8"?>

<!-- generated on 2026-02-13T10:08:05.244090+01:00 by Eclipse SUMO sumo v1_26_0+0194-784c8d1ff8f
<sumoConfiguration xmlns:xsi="http://www.w3.org/2001/XMLSchema-instance" xsi:noNamespaceSchemaLocation="http://sumo.dlr.de/xsd/sumoConfiguration.xsd">

    <input>
        <net-file value="net.net.xml"/>
        <route-files value="input_routes.rou.xml"/>
    </input>

    <output>
        <tripinfo-output value="tripinfos.xml"/>
        <tripinfo-output.write-unfinished value="true"/>
        <vehroute-output value="vehroutes.xml"/>
        <vehroute-output.write-unfinished value="true"/>
        <stop-output value="stopinfos.xml"/>
    </output>

    <time>
        <end value="1000"/>
    </time>

    <report>
        <duration-log.disable value="true"/>
        <no-step-log value="true"/>
    </report>

    <taxi_device>
        <device.taxi.dispatch-period value="10"/>
        <device.taxi.idle-algorithm value="randomCircling"/>
    </taxi_device>

</sumoConfiguration>
-->

<routes xmlns:xsi="http://www.w3.org/2001/XMLSchema-instance" xsi:noNamespaceSchemaLocation="http://sumo.dlr.de/xsd/routes_file.xsd">
    <person id="p0" depart="0.00" departPos="50.00" arrival="144.00">
        <ride from="C1B1" to="B1A1" arrivalPos="285.60" lines="taxi"/>
    </person>

    <vehicle id="v0" type="taxi" depart="0.00" departPos="75.60" departSpeed="14.3067" speedFactor="1.0300">
        <routeDistribution>
            <route replacedOnEdge="C0C1" reason="taxi:idling:randomCircling" replacedAtTime="0.00" probability="0" edges="C0C1 C1C2"/>
            <route replacedOnEdge="C0C1" reason="taxi:prepare_dispatch" replacedAtTime="0.00" probability="0" edges="C0C1 C1C2 C2D2 D2C2"/>
            <route replacedOnEdge="C0C1" reason="taxi:dispatch" replacedAtTime="0.00" probability="0" edges="C0C1 C1C2 C1B1 B1A1"/>
            <route replacedOnEdge="B1A1" replacedOnIndex="4" reason="taxi:idling:randomCircling" replacedAtTime="145.00" probability="0" edges="C0C1 C1C2 C2C1 C1B1 B1A1"/>
            <route replacedOnEdge="A0B0" replacedOnIndex="6" reason="taxi:idling:randomCircling" replacedAtTime="159.00" probability="0" edges="C0C1 C1C2 C2C1 C1B1 B1A1 A1A0 A0B0 B0B1"/>
            <route replacedOnEdge="A0B0" replacedOnIndex="6" reason="taxi:idling:randomCircling" replacedAtTime="173.00" probability="0" edges="C0C1 C1C2 C2C1 C1B1 B1A1 A1A0 A0B0 B0B1 B1B0"/>
            <route replacedOnEdge="A0B0" replacedOnIndex="6" reason="taxi:idling:randomCircling" replacedAtTime="179.00" probability="0" edges="C0C1 C1C2 C2C1 C1B1 B1A1 A1A0 A0B0 B0B1 B1B0 B0A0"/>
            <route replacedOnEdge="B0A0" replacedOnIndex="9" reason="taxi:idling:randomCircling" replacedAtTime="204.00" probability="0" edges="C0C1 C1C2 C2C1 C1B1 B1A1 A1A0 A0B0 B0B1 B1B0 B0A0 A0A1"/>
            <route replacedOnEdge="B0A0" replacedOnIndex="9" reason="taxi:idling:randomCircling" replacedAtTime="218.00" probability="0" edges="C0C1 C1C2 C2C1 C1B1 B1A1 A1A0 A0B0 B0B1 B1B0 B0A0 A0A1 A1B1"/>
            <route replacedOnEdge="A1B1" replacedOnIndex="11" reason="taxi:idling:randomCircling" replacedAtTime="238.00" probability="0" edges="C0C1 C1C2 C2C1 C1B1 B1A1 A1A0 A0B0 B0B1 B1B0 B0A0 A0A1 A1B1 B1A1"/>
            <route replacedOnEdge="B1A1" replacedOnIndex="12" reason="taxi:idling:randomCircling" replacedAtTime="263.00" probability="0" edges="C0C1 C1C2 C2C1 C1B1 B1A1 A1A0 A0B0 B0B1 B1B0 B0A0 A0A1 A1B1 B1A1 A1A2"/>
            <route replacedOnEdge="B1A1" replacedOnIndex="12" reason="taxi:idling:randomCircling" replacedAtTime="278.00" probability="0" edges="C0C1 C1C2 C2C1 C1B1 B1A1 A1A0 A0B0 B0B1 B1B0 B0A0 A0A1 A1B1 B1A1 A1A2 A2B2"/>
            <route replacedOnEdge="A2B2" replacedOnIndex="14" reason="taxi:idling:randomCircling" replacedAtTime="298.00" probability="0" edges="C0C1 C1C2 C2C1 C1B1 B1A1 A1A0 A0B0 B0B1 B1B0 B0A0 A0A1 A1B1 B1A1 A1A2 A2B2 B2B1"/>
            <route replacedOnEdge="A2B2" replacedOnIndex="14" reason="taxi:idling:randomCircling" replacedAtTime="312.00" probability="0" edges="C0C1 C1C2 C2C1 C1B1 B1A1 A1A0 A0B0 B0B1 B1B0 B0A0 A0A1 A1B1 B1A1 A1A2 A2B2 B2B1 B1B2"/>
            <route replacedOnEdge="A2B2" replacedOnIndex="14" reason="taxi:idling:randomCircling" replacedAtTime="318.00" probability="0" edges="C0C1 C1C2 C2C1 C1B1 B1A1 A1A0 A0B0 B0B1 B1B0 B0A0 A0A1 A1B1 B1A1 A1A2 A2B2 B2B1 B1B2 B2B1"/>
            <route replacedOnEdge="B2B1" replacedOnIndex="15" reason="taxi:idling:randomCircling" replacedAtTime="327.00" probability="0" edges="C0C1 C1C2 C2C1 C1B1 B1A1 A1A0 A0B0 B0B1 B1B0 B0A0 A0A1 A1B1 B1A1 A1A2 A2B2 B2B1 B1B2 B2B1 B1B0"/>
            <route replacedOnEdge="B1B2" replacedOnIndex="16" reason="taxi:idling:randomCircling" replacedAtTime="338.00" probability="0" edges="C0C1 C1C2 C2C1 C1B1 B1A1 A1A0 A0B0 B0B1 B1B0 B0A0 A0A1 A1B1 B1A1 A1A2 A2B2 B2B1 B1B2 B2B1 B1B0 B0B1"/>
            <route replacedOnEdge="B2B1" replacedOnIndex="17" reason="taxi:idling:randomCircling" replacedAtTime="349.00" probability="0" edges="C0C1 C1C2 C2C1 C1B1 B1A1 A1A0 A0B0 B0B1 B1B0 B0A0 A0A1 A1B1 B1A1 A1A2 A2B2 B2B1 B1B2 B2B1 B1B0 B0B1 B1B2"/>
            <route replacedOnEdge="B1B0" replacedOnIndex="18" reason="taxi:idling:randomCircling" replacedAtTime="357.00" probability="0" edges="C0C1 C1C2 C2C1 C1B1 B1A1 A1A0 A0B0 B0B1 B1B0 B0A0 A0A1 A1B1 B1A1 A1A2 A2B2 B2B1 B1B2 B2B1 B1B0 B0B1 B1B2 B2A2"/>
            <route replacedOnEdge="B2A2" replacedOnIndex="21" reason="taxi:idling:randomCircling" replacedAtTime="381.00" probability="0" edges="C0C1 C1C2 C2C1 C1B1 B1A1 A1A0 A0B0 B0B1 B1B0 B0A0 A0A1 A1B1 B1A1 A1A2 A2B2 B2B1 B1B2 B2B1 B1B0 B0B1 B1B2 B2A2 A2A1"/>
            <route replacedOnEdge="B2A2" replacedOnIndex="21" reason="taxi:idling:randomCircling" replacedAtTime="394.00" probability="0" edges="C0C1 C1C2 C2C1 C1B1 B1A1 A1A0 A0B0 B0B1 B1B0 B0A0 A0A1 A1B1 B1A1 A1A2 A2B2 B2B1 B1B2 B2B1 B1B0 B0B1 B1B2 B2A2 A2A1 A1A2"/>
            <route replacedOnEdge="B2A2" replacedOnIndex="21" reason="taxi:idling:randomCircling" replacedAtTime="401.00" probability="0" edges="C0C1 C1C2 C2C1 C1B1 B1A1 A1A0 A0B0 B0B1 B1B0 B0A0 A0A1 A1B1 B1A1 A1A2 A2B2 B2B1 B1B2 B2B1 B1B0 B0B1 B1B2 B2A2 A2A1 A1A2 A2B2"/>
            <route replacedOnEdge="A2B2" replacedOnIndex="24" reason="taxi:idling:randomCircling" replacedAtTime="425.00" probability="0" edges="C0C1 C1C2 C2C1 C1B1 B1A1 A1A0 A0B0 B0B1 B1B0 B0A0 A0A1 A1B1 B1A1 A1A2 A2B2 B2B1 B1B2 B2B1 B1B0 B0B1 B1B2 B2A2 A2A1 A1A2 A2B2 B2A2"/>
            <route replacedOnEdge="B2A2" replacedOnIndex="25" reason="taxi:idling:randomCircling" replacedAtTime="450.00" probability="0" edges="C0C1 C1C2 C2C1 C1B1 B1A1 A1A0 A0B0 B0B1 B1B0 B0A0 A0A1 A1B1 B1A1 A1A2 A2B2 B2B1 B1B2 B2B1 B1B0 B0B1 B1B2 B2A2 A2A1 A1A2 A2B2 B2A2 A2A1"/>
            <route replacedOnEdge="B2A2" replacedOnIndex="25" reason="taxi:idling:randomCircling" replacedAtTime="465.00" probability="0" edges="C0C1 C1C2 C2C1 C1B1 B1A1 A1A0 A0B0 B0B1 B1B0 B0A0 A0A1 A1B1 B1A1 A1A2 A2B2 B2B1 B1B2 B2B1 B1B0 B0B1 B1B2 B2A2 A2A1 A1A2 A2B2 B2A2 A2A1 A1A2"/>
            <route replacedOnEdge="B2A2" replacedOnIndex="25" reason="taxi:idling:randomCircling" replacedAtTime="471.00" probability="0" edges="C0C1 C1C2 C2C1 C1B1 B1A1 A1A0 A0B0 B0B1 B1B0 B0A0 A0A1 A1B1 B1A1 A1A2 A2B2 B2B1 B1B2 B2B1 B1B0 B0B1 B1B2 B2A2 A2A1 A1A2 A2B2 B2A2 A2A1 A1A2 A2B2"/>
            <route replacedOnEdge="A2B2" replacedOnIndex="28" reason="taxi:idling:randomCircling" replacedAtTime="495.00" probability="0" edges="C0C1 C1C2 C2C1 C1B1 B1A1 A1A0 A0B0 B0B1 B1B0 B0A0 A0A1 A1B1 B1A1 A1A2 A2B2 B2B1 B1B2 B2B1 B1B0 B0B1 B1B2 B2A2 A2A1 A1A2 A2B2 B2A2 A2A1 A1A2 A2B2 B2C2"/>
            <route replacedOnEdge="B2C2" replacedOnIndex="29" reason="taxi:idling:randomCircling" replacedAtTime="518.00" probability="0" edges="C0C1 C1C2 C2C1 C1B1 B1A1 A1A0 A0B0 B0B1 B1B0 B0A0 A0A1 A1B1 B1A1 A1A2 A2B2 B2B1 B1B2 B2B1 B1B0 B0B1 B1B2 B2A2 A2A1 A1A2 A2B2 B2A2 A2A1 A1A2 A2B2 B2C2 C2D2"/>
            <route replacedOnEdge="C2D2" replacedOnIndex="30" reason="taxi:idling:randomCircling" replacedAtTime="540.00" probability="0" edges="C0C1 C1C2 C2C1 C1B1 B1A1 A1A0 A0B0 B0B1 B1B0 B0A0 A0A1 A1B1 B1A1 A1A2 A2B2 B2B1 B1B2 B2B1 B1B0 B0B1 B1B2 B2A2 A2A1 A1A2 A2B2 B2A2 A2A1 A1A2 A2B2 B2C2 C2D2 D2E2"/>
            <route replacedOnEdge="D2E2" replacedOnIndex="31" reason="taxi:idling:randomCircling" replacedAtTime="562.00" probability="0" edges="C0C1 C1C2 C2C1 C1B1 B1A1 A1A0 A0B0 B0B1 B1B0 B0A0 A0A1 A1B1 B1A1 A1A2 A2B2 B2B1 B1B2 B2B1 B1B0 B0B1 B1B2 B2A2 A2A1 A1A2 A2B2 B2A2 A2A1 A1A2 A2B2 B2C2 C2D2 D2E2 E2D2"/>
            <route replacedOnEdge="E2D2" replacedOnIndex="32" reason="taxi:idling:randomCircling" replacedAtTime="586.00" probability="0" edges="C0C1 C1C2 C2C1 C1B1 B1A1 A1A0 A0B0 B0B1 B1B0 B0A0 A0A1 A1B1 B1A1 A1A2 A2B2 B2B1 B1B2 B2B1 B1B0 B0B1 B1B2 B2A2 A2A1 A1A2 A2B2 B2A2 A2A1 A1A2 A2B2 B2C2 C2D2 D2E2 E2D2 D2C2"/>
            <route replacedOnEdge="D2C2" replacedOnIndex="33" reason="taxi:idling:randomCircling" replacedAtTime="609.00" probability="0" edges="C0C1 C1C2 C2C1 C1B1 B1A1 A1A0 A0B0 B0B1 B1B0 B0A0 A0A1 A1B1 B1A1 A1A2 A2B2 B2B1 B1B2 B2B1 B1B0 B0B1 B1B2 B2A2 A2A1 A1A2 A2B2 B2A2 A2A1 A1A2 A2B2 B2C2 C2D2 D2E2 E2D2 D2C2 C2D2"/>
            <route replacedOnEdge="C2D2" replacedOnIndex="34" reason="taxi:idling:randomCircling" replacedAtTime="633.00" probability="0" edges="C0C1 C1C2 C2C1 C1B1 B1A1 A1A0 A0B0 B0B1 B1B0 B0A0 A0A1 A1B1 B1A1 A1A2 A2B2 B2B1 B1B2 B2B1 B1B0 B0B1 B1B2 B2A2 A2A1 A1A2 A2B2 B2A2 A2A1 A1A2 A2B2 B2C2 C2D2 D2E2 E2D2 D2C2 C2D2 D2D1"/>
            <route replacedOnEdge="C2D2" replacedOnIndex="34" reason="taxi:idling:randomCircling" replacedAtTime="648.00" probability="0" edges="C0C1 C1C2 C2C1 C1B1 B1A1 A1A0 A0B0 B0B1 B1B0 B0A0 A0A1 A1B1 B1A1 A1A2 A2B2 B2B1 B1B2 B2B1 B1B0 B0B1 B1B2 B2A2 A2A1 A1A2 A2B2 B2A2 A2A1 A1A2 A2B2 B2C2 C2D2 D2E2 E2D2 D2C2 C2D2 D2D1 D1D2"/>
            <route replacedOnEdge="C2D2" replacedOnIndex="34" reason="taxi:idling:randomCircling" replacedAtTime="654.00" probability="0" edges="C0C1 C1C2 C2C1 C1B1 B1A1 A1A0 A0B0 B0B1 B1B0 B0A0 A0A1 A1B1 B1A1 A1A2 A2B2 B2B1 B1B2 B2B1 B1B0 B0B1 B1B2 B2A2 A2A1 A1A2 A2B2 B2A2 A2A1 A1A2 A2B2 B2C2 C2D2 D2E2 E2D2 D2C2 C2D2 D2D1 D1D2 D2E2"/>
            <route replacedOnEdge="D2E2" replacedOnIndex="37" reason="taxi:idling:randomCircling" replacedAtTime="679.00" probability="0" edges="C0C1 C1C2 C2C1 C1B1 B1A1 A1A0 A0B0 B0B1 B1B0 B0A0 A0A1 A1B1 B1A1 A1A2 A2B2 B2B1 B1B2 B2B1 B1B0 B0B1 B1B2 B2A2 A2A1 A1A2 A2B2 B2A2 A2A1 A1A2 A2B2 B2C2 C2D2 D2E2 E2D2 D2C2 C2D2 D2D1 D1D2 D2E2 E2D2"/>
            <route replacedOnEdge="E2D2" replacedOnIndex="38" reason="taxi:idling:randomCircling" replacedAtTime="703.00" probability="0" edges="C0C1 C1C2 C2C1 C1B1 B1A1 A1A0 A0B0 B0B1 B1B0 B0A0 A0A1 A1B1 B1A1 A1A2 A2B2 B2B1 B1B2 B2B1 B1B0 B0B1 B1B2 B2A2 A2A1 A1A2 A2B2 B2A2 A2A1 A1A2 A2B2 B2C2 C2D2 D2E2 E2D2 D2C2 C2D2 D2D1 D1D2 D2E2 E2D2 D2D1"/>
            <route replacedOnEdge="E2D2" replacedOnIndex="38" reason="taxi:idling:randomCircling" replacedAtTime="718.00" probability="0" edges="C0C1 C1C2 C2C1 C1B1 B1A1 A1A0 A0B0 B0B1 B1B0 B0A0 A0A1 A1B1 B1A1 A1A2 A2B2 B2B1 B1B2 B2B1 B1B0 B0B1 B1B2 B2A2 A2A1 A1A2 A2B2 B2A2 A2A1 A1A2 A2B2 B2C2 C2D2 D2E2 E2D2 D2C2 C2D2 D2D1 D1D2 D2E2 E2D2 D2D1 D1C1"/>
            <route replacedOnEdge="D1C1" replacedOnIndex="40" reason="taxi:idling:randomCircling" replacedAtTime="738.00" probability="0" edges="C0C1 C1C2 C2C1 C1B1 B1A1 A1A0 A0B0 B0B1 B1B0 B0A0 A0A1 A1B1 B1A1 A1A2 A2B2 B2B1 B1B2 B2B1 B1B0 B0B1 B1B2 B2A2 A2A1 A1A2 A2B2 B2A2 A2A1 A1A2 A2B2 B2C2 C2D2 D2E2 E2D2 D2C2 C2D2 D2D1 D1D2 D2E2 E2D2 D2D1 D1C1 C1C0"/>
            <route replacedOnEdge="D1C1" replacedOnIndex="40" reason="taxi:idling:randomCircling" replacedAtTime="752.00" probability="0" edges="C0C1 C1C2 C2C1 C1B1 B1A1 A1A0 A0B0 B0B1 B1B0 B0A0 A0A1 A1B1 B1A1 A1A2 A2B2 B2B1 B1B2 B2B1 B1B0 B0B1 B1B2 B2A2 A2A1 A1A2 A2B2 B2A2 A2A1 A1A2 A2B2 B2C2 C2D2 D2E2 E2D2 D2C2 C2D2 D2D1 D1D2 D2E2 E2D2 D2D1 D1C1 C1C0 C0C1"/>
            <route replacedOnEdge="D1C1" replacedOnIndex="40" reason="taxi:idling:randomCircling" replacedAtTime="758.00" probability="0" edges="C0C1 C1C2 C2C1 C1B1 B1A1 A1A0 A0B0 B0B1 B1B0 B0A0 A0A1 A1B1 B1A1 A1A2 A2B2 B2B1 B1B2 B2B1 B1B0 B0B1 B1B2 B2A2 A2A1 A1A2 A2B2 B2A2 A2A1 A1A2 A2B2 B2C2 C2D2 D2E2 E2D2 D2C2 C2D2 D2D1 D1D2 D2E2 E2D2 D2D1 D1C1 C1C0 C0C1 C1D1"/>
            <route replacedOnEdge="C1D1" replacedOnIndex="43" reason="taxi:idling:randomCircling" replacedAtTime="783.00" probability="0" edges="C0C1 C1C2 C2C1 C1B1 B1A1 A1A0 A0B0 B0B1 B1B0 B0A0 A0A1 A1B1 B1A1 A1A2 A2B2 B2B1 B1B2 B2B1 B1B0 B0B1 B1B2 B2A2 A2A1 A1A2 A2B2 B2A2 A2A1 A1A2 A2B2 B2C2 C2D2 D2E2 E2D2 D2C2 C2D2 D2D1 D1D2 D2E2 E2D2 D2D1 D1C1 C1C0 C0C1 C1D1 D1D2"/>
            <route replacedOnEdge="C1D1" replacedOnIndex="43" reason="taxi:idling:randomCircling" replacedAtTime="797.00" probability="0" edges="C0C1 C1C2 C2C1 C1B1 B1A1 A1A0 A0B0 B0B1 B1B0 B0A0 A0A1 A1B1 B1A1 A1A2 A2B2 B2B1 B1B2 B2B1 B1B0 B0B1 B1B2 B2A2 A2A1 A1A2 A2B2 B2A2 A2A1 A1A2 A2B2 B2C2 C2D2 D2E2 E2D2 D2C2 C2D2 D2D1 D1D2 D2E2 E2D2 D2D1 D1C1 C1C0 C0C1 C1D1 D1D2 D2E2"/>
            <route replacedOnEdge="D2E2" replacedOnIndex="45" reason="taxi:idling:randomCircling" replacedAtTime="817.00" probability="0" edges="C0C1 C1C2 C2C1 C1B1 B1A1 A1A0 A0B0 B0B1 B1B0 B0A0 A0A1 A1B1 B1A1 A1A2 A2B2 B2B1 B1B2 B2B1 B1B0 B0B1 B1B2 B2A2 A2A1 A1A2 A2B2 B2A2 A2A1 A1A2 A2B2 B2C2 C2D2 D2E2 E2D2 D2C2 C2D2 D2D1 D1D2 D2E2 E2D2 D2D1 D1C1 C1C0 C0C1 C1D1 D1D2 D2E2 E2F2"/>
            <route replacedOnEdge="E2F2" replacedOnIndex="46" reason="taxi:idling:randomCircling" replacedAtTime="840.00" probability="0" edges="C0C1 C1C2 C2C1 C1B1 B1A1 A1A0 A0B0 B0B1 B1B0 B0A0 A0A1 A1B1 B1A1 A1A2 A2B2 B2B1 B1B2 B2B1 B1B0 B0B1 B1B2 B2A2 A2A1 A1A2 A2B2 B2A2 A2A1 A1A2 A2B2 B2C2 C2D2 D2E2 E2D2 D2C2 C2D2 D2D1 D1D2 D2E2 E2D2 D2D1 D1C1 C1C0 C0C1 C1D1 D1D2 D2E2 E2F2 F2F1"/>
            <route replacedOnEdge="E2F2" replacedOnIndex="46" reason="taxi:idling:randomCircling" replacedAtTime="853.00" probability="0" edges="C0C1 C1C2 C2C1 C1B1 B1A1 A1A0 A0B0 B0B1 B1B0 B0A0 A0A1 A1B1 B1A1 A1A2 A2B2 B2B1 B1B2 B2B1 B1B0 B0B1 B1B2 B2A2 A2A1 A1A2 A2B2 B2A2 A2A1 A1A2 A2B2 B2C2 C2D2 D2E2 E2D2 D2C2 C2D2 D2D1 D1D2 D2E2 E2D2 D2D1 D1C1 C1C0 C0C1 C1D1 D1D2 D2E2 E2F2 F2F1 F1F2"/>
            <route replacedOnEdge="E2F2" replacedOnIndex="46" reason="taxi:idling:randomCircling" replacedAtTime="859.00" probability="0" edges="C0C1 C1C2 C2C1 C1B1 B1A1 A1A0 A0B0 B0B1 B1B0 B0A0 A0A1 A1B1 B1A1 A1A2 A2B2 B2B1 B1B2 B2B1 B1B0 B0B1 B1B2 B2A2 A2A1 A1A2 A2B2 B2A2 A2A1 A1A2 A2B2 B2C2 C2D2 D2E2 E2D2 D2C2 C2D2 D2D1 D1D2 D2E2 E2D2 D2D1 D1C1 C1C0 C0C1 C1D1 D1D2 D2E2 E2F2 F2F1 F1F2 F2E2"/>
            <route replacedOnEdge="F2E2" replacedOnIndex="49" reason="taxi:idling:randomCircling" replacedAtTime="883.00" probability="0" edges="C0C1 C1C2 C2C1 C1B1 B1A1 A1A0 A0B0 B0B1 B1B0 B0A0 A0A1 A1B1 B1A1 A1A2 A2B2 B2B1 B1B2 B2B1 B1B0 B0B1 B1B2 B2A2 A2A1 A1A2 A2B2 B2A2 A2A1 A1A2 A2B2 B2C2 C2D2 D2E2 E2D2 D2C2 C2D2 D2D1 D1D2 D2E2 E2D2 D2D1 D1C1 C1C0 C0C1 C1D1 D1D2 D2E2 E2F2 F2F1 F1F2 F2E2 E2F2"/>
            <route replacedOnEdge="E2F2" replacedOnIndex="50" reason="taxi:idling:randomCircling" replacedAtTime="907.00" probability="0" edges="C0C1 C1C2 C2C1 C1B1 B1A1 A1A0 A0B0 B0B1 B1B0 B0A0 A0A1 A1B1 B1A1 A1A2 A2B2 B2B1 B1B2 B2B1 B1B0 B0B1 B1B2 B2A2 A2A1 A1A2 A2B2 B2A2 A2A1 A1A2 A2B2 B2C2 C2D2 D2E2 E2D2 D2C2 C2D2 D2D1 D1D2 D2E2 E2D2 D2D1 D1C1 C1C0 C0C1 C1D1 D1D2 D2E2 E2F2 F2F1 F1F2 F2E2 E2F2 F2F1"/>
            <route replacedOnEdge="E2F2" replacedOnIndex="50" reason="taxi:idling:randomCircling" replacedAtTime="922.00" probability="0" edges="C0C1 C1C2 C2C1 C1B1 B1A1 A1A0 A0B0 B0B1 B1B0 B0A0 A0A1 A1B1 B1A1 A1A2 A2B2 B2B1 B1B2 B2B1 B1B0 B0B1 B1B2 B2A2 A2A1 A1A2 A2B2 B2A2 A2A1 A1A2 A2B2 B2C2 C2D2 D2E2 E2D2 D2C2 C2D2 D2D1 D1D2 D2E2 E2D2 D2D1 D1C1 C1C0 C0C1 C1D1 D1D2 D2E2 E2F2 F2F1 F1F2 F2E2 E2F2 F2F1 F1E1"/>
            <route replacedOnEdge="F1E1" replacedOnIndex="52" reason="taxi:idling:randomCircling" replacedAtTime="942.00" probability="0" edges="C0C1 C1C2 C2C1 C1B1 B1A1 A1A0 A0B0 B0B1 B1B0 B0A0 A0A1 A1B1 B1A1 A1A2 A2B2 B2B1 B1B2 B2B1 B1B0 B0B1 B1B2 B2A2 A2A1 A1A2 A2B2 B2A2 A2A1 A1A2 A2B2 B2C2 C2D2 D2E2 E2D2 D2C2 C2D2 D2D1 D1D2 D2E2 E2D2 D2D1 D1C1 C1C0 C0C1 C1D1 D1D2 D2E2 E2F2 F2F1 F1F2 F2E2 E2F2 F2F1 F1E1 E1F1"/>
            <route replacedOnEdge="E1F1" replacedOnIndex="53" reason="taxi:idling:randomCircling" replacedAtTime="967.00" probability="0" edges="C0C1 C1C2 C2C1 C1B1 B1A1 A1A0 A0B0 B0B1 B1B0 B0A0 A0A1 A1B1 B1A1 A1A2 A2B2 B2B1 B1B2 B2B1 B1B0 B0B1 B1B2 B2A2 A2A1 A1A2 A2B2 B2A2 A2A1 A1A2 A2B2 B2C2 C2D2 D2E2 E2D2 D2C2 C2D2 D2D1 D1D2 D2E2 E2D2 D2D1 D1C1 C1C0 C0C1 C1D1 D1D2 D2E2 E2F2 F2F1 F1F2 F2E2 E2F2 F2F1 F1E1 E1F1 F1E1"/>
            <route replacedOnEdge="F1E1" replacedOnIndex="54" reason="taxi:idling:randomCircling" replacedAtTime="993.00" probability="0" edges="C0C1 C1C2 C2C1 C1B1 B1A1 A1A0 A0B0 B0B1 B1B0 B0A0 A0A1 A1B1 B1A1 A1A2 A2B2 B2B1 B1B2 B2B1 B1B0 B0B1 B1B2 B2A2 A2A1 A1A2 A2B2 B2A2 A2A1 A1A2 A2B2 B2C2 C2D2 D2E2 E2D2 D2C2 C2D2 D2D1 D1D2 D2E2 E2D2 D2D1 D1C1 C1C0 C0C1 C1D1 D1D2 D2E2 E2F2 F2F1 F1F2 F2E2 E2F2 F2F1 F1E1 E1F1 F1E1 E1F1"/>
            <route edges="C0C1 C1C2 C2C1 C1B1 B1A1 A1A0 A0B0 B0B1 B1B0 B0A0 A0A1 A1B1 B1A1 A1A2 A2B2 B2B1 B1B2 B2B1 B1B0 B0B1 B1B2 B2A2 A2A1 A1A2 A2B2 B2A2 A2A1 A1A2 A2B2 B2C2 C2D2 D2E2 E2D2 D2C2 C2D2 D2D1 D1D2 D2E2 E2D2 D2D1 D1C1 C1C0 C0C1 C1D1 D1D2 D2E2 E2F2 F2F1 F1F2 F2E2 E2F2 F2F1 F1E1 E1F1 F1E1 E1F1 F1F0"/>
        </routeDistribution>
        <stop lane="C1B1_1" permitted="p0" actType="pickup p0 (0)"/>
        <stop lane="B1A1_1" actType="dropOff p0 (0)"/>
    </vehicle>

    <vehicle id="v1" type="taxi" depart="0.00" departPos="25.60" departSpeed="13.4622" speedFactor="0.9692">
        <routeDistribution>
            <route replacedOnEdge="C2C1" reason="taxi:idling:randomCircling" replacedAtTime="0.00" probability="0" edges="C2C1 C1B1"/>
            <route replacedOnEdge="C1B1" replacedOnIndex="1" reason="taxi:idling:randomCircling" replacedAtTime="7.00" probability="0" edges="C2C1 C1B1 B1A1"/>
            <route replacedOnEdge="B1A1" replacedOnIndex="2" reason="taxi:idling:randomCircling" replacedAtTime="32.00" probability="0" edges="C2C1 C1B1 B1A1 A1A2"/>
            <route replacedOnEdge="B1A1" replacedOnIndex="2" reason="taxi:idling:randomCircling" replacedAtTime="46.00" probability="0" edges="C2C1 C1B1 B1A1 A1A2 A2B2"/>
            <route replacedOnEdge="A2B2" replacedOnIndex="4" reason="taxi:idling:randomCircling" replacedAtTime="67.00" probability="0" edges="C2C1 C1B1 B1A1 A1A2 A2B2 B2A2"/>
            <route replacedOnEdge="B2A2" replacedOnIndex="5" reason="taxi:idling:randomCircling" replacedAtTime="93.00" probability="0" edges="C2C1 C1B1 B1A1 A1A2 A2B2 B2A2 A2A1"/>
            <route replacedOnEdge="B2A2" replacedOnIndex="5" reason="taxi:idling:randomCircling" replacedAtTime="109.00" probability="0" edges="C2C1 C1B1 B1A1 A1A2 A2B2 B2A2 A2A1 A1A0"/>
            <route replacedOnEdge="B2A2" replacedOnIndex="5" reason="taxi:idling:randomCircling" replacedAtTime="116.00" probability="0" edges="C2C1 C1B1 B1A1 A1A2 A2B2 B2A2 A2A1 A1A0 A0B0"/>
            <route replacedOnEdge="A0B0" replacedOnIndex="8" reason="taxi:idling:randomCircling" replacedAtTime="138.00" probability="0" edges="C2C1 C1B1 B1A1 A1A2 A2B2 B2A2 A2A1 A1A0 A0B0 B0A0"/>
            <route replacedOnEdge="B0A0" replacedOnIndex="9" reason="taxi:idling:randomCircling" replacedAtTime="164.00" probability="0" edges="C2C1 C1B1 B1A1 A1A2 A2B2 B2A2 A2A1 A1A0 A0B0 B0A0 A0A1"/>
            <route replacedOnEdge="B0A0" replacedOnIndex="9" reason="taxi:idling:randomCircling" replacedAtTime="180.00" probability="0" edges="C2C1 C1B1 B1A1 A1A2 A2B2 B2A2 A2A1 A1A0 A0B0 B0A0 A0A1 A1B1"/>
            <route replacedOnEdge="A1B1" replacedOnIndex="11" reason="taxi:idling:randomCircling" replacedAtTime="201.00" probability="0" edges="C2C1 C1B1 B1A1 A1A2 A2B2 B2A2 A2A1 A1A0 A0B0 B0A0 A0A1 A1B1 B1C1"/>
            <route replacedOnEdge="B1C1" replacedOnIndex="12" reason="taxi:idling:randomCircling" replacedAtTime="226.00" probability="0" edges="C2C1 C1B1 B1A1 A1A2 A2B2 B2A2 A2A1 A1A0 A0B0 B0A0 A0A1 A1B1 B1C1 C1C2"/>
            <route replacedOnEdge="B1C1" replacedOnIndex="12" reason="taxi:idling:randomCircling" replacedAtTime="240.00" probability="0" edges="C2C1 C1B1 B1A1 A1A2 A2B2 B2A2 A2A1 A1A0 A0B0 B0A0 A0A1 A1B1 B1C1 C1C2 C2D2"/>
            <route replacedOnEdge="C2D2" replacedOnIndex="14" reason="taxi:idling:randomCircling" replacedAtTime="262.00" probability="0" edges="C2C1 C1B1 B1A1 A1A2 A2B2 B2A2 A2A1 A1A0 A0B0 B0A0 A0A1 A1B1 B1C1 C1C2 C2D2 D2C2"/>
            <route replacedOnEdge="D2C2" replacedOnIndex="15" reason="taxi:idling:randomCircling" replacedAtTime="288.00" probability="0" edges="C2C1 C1B1 B1A1 A1A2 A2B2 B2A2 A2A1 A1A0 A0B0 B0A0 A0A1 A1B1 B1C1 C1C2 C2D2 D2C2 C2D2"/>
            <route replacedOnEdge="C2D2" replacedOnIndex="16" reason="taxi:idling:randomCircling" replacedAtTime="315.00" probability="0" edges="C2C1 C1B1 B1A1 A1A2 A2B2 B2A2 A2A1 A1A0 A0B0 B0A0 A0A1 A1B1 B1C1 C1C2 C2D2 D2C2 C2D2 D2E2"/>
            <route replacedOnEdge="D2E2" replacedOnIndex="17" reason="taxi:idling:randomCircling" replacedAtTime="340.00" probability="0" edges="C2C1 C1B1 B1A1 A1A2 A2B2 B2A2 A2A1 A1A0 A0B0 B0A0 A0A1 A1B1 B1C1 C1C2 C2D2 D2C2 C2D2 D2E2 E2D2"/>
            <route replacedOnEdge="E2D2" replacedOnIndex="18" reason="taxi:idling:randomCircling" replacedAtTime="365.00" probability="0" edges="C2C1 C1B1 B1A1 A1A2 A2B2 B2A2 A2A1 A1A0 A0B0 B0A0 A0A1 A1B1 B1C1 C1C2 C2D2 D2C2 C2D2 D2E2 E2D2 D2D1"/>
            <route replacedOnEdge="E2D2" replacedOnIndex="18" reason="taxi:idling:randomCircling" replacedAtTime="380.00" probability="0" edges="C2C1 C1B1 B1A1 A1A2 A2B2 B2A2 A2A1 A1A0 A0B0 B0A0 A0A1 A1B1 B1C1 C1C2 C2D2 D2C2 C2D2 D2E2 E2D2 D2D1 D1C1"/>
            <route replacedOnEdge="D1C1" replacedOnIndex="20" reason="taxi:idling:randomCircling" replacedAtTime="401.00" probability="0" edges="C2C1 C1B1 B1A1 A1A2 A2B2 B2A2 A2A1 A1A0 A0B0 B0A0 A0A1 A1B1 B1C1 C1C2 C2D2 D2C2 C2D2 D2E2 E2D2 D2D1 D1C1 C1B1"/>
            <route replacedOnEdge="C1B1" replacedOnIndex="21" reason="taxi:idling:randomCircling" replacedAtTime="428.00" probability="0" edges="C2C1 C1B1 B1A1 A1A2 A2B2 B2A2 A2A1 A1A0 A0B0 B0A0 A0A1 A1B1 B1C1 C1C2 C2D2 D2C2 C2D2 D2E2 E2D2 D2D1 D1C1 C1B1 B1B2"/>
            <route replacedOnEdge="C1B1" replacedOnIndex="21" reason="taxi:idling:randomCircling" replacedAtTime="441.00" probability="0" edges="C2C1 C1B1 B1A1 A1A2 A2B2 B2A2 A2A1 A1A0 A0B0 B0A0 A0A1 A1B1 B1C1 C1C2 C2D2 D2C2 C2D2 D2E2 E2D2 D2D1 D1C1 C1B1 B1B2 B2A2"/>
            <route replacedOnEdge="B2A2" replacedOnIndex="23" reason="taxi:idling:randomCircling" replacedAtTime="463.00" probability="0" edges="C2C1 C1B1 B1A1 A1A2 A2B2 B2A2 A2A1 A1A0 A0B0 B0A0 A0A1 A1B1 B1C1 C1C2 C2D2 D2C2 C2D2 D2E2 E2D2 D2D1 D1C1 C1B1 B1B2 B2A2 A2A1"/>
            <route replacedOnEdge="B2A2" replacedOnIndex="23" reason="taxi:idling:randomCircling" replacedAtTime="478.00" probability="0" edges="C2C1 C1B1 B1A1 A1A2 A2B2 B2A2 A2A1 A1A0 A0B0 B0A0 A0A1 A1B1 B1C1 C1C2 C2D2 D2C2 C2D2 D2E2 E2D2 D2D1 D1C1 C1B1 B1B2 B2A2 A2A1 A1A2"/>
            <route replacedOnEdge="B2A2" replacedOnIndex="23" reason="taxi:idling:randomCircling" replacedAtTime="484.00" probability="0" edges="C2C1 C1B1 B1A1 A1A2 A2B2 B2A2 A2A1 A1A0 A0B0 B0A0 A0A1 A1B1 B1C1 C1C2 C2D2 D2C2 C2D2 D2E2 E2D2 D2D1 D1C1 C1B1 B1B2 B2A2 A2A1 A1A2 A2B2"/>
            <route replacedOnEdge="A2B2" replacedOnIndex="26" reason="taxi:idling:randomCircling" replacedAtTime="509.00" probability="0" edges="C2C1 C1B1 B1A1 A1A2 A2B2 B2A2 A2A1 A1A0 A0B0 B0A0 A0A1 A1B1 B1C1 C1C2 C2D2 D2C2 C2D2 D2E2 E2D2 D2D1 D1C1 C1B1 B1B2 B2A2 A2A1 A1A2 A2B2 B2A2"/>
            <route replacedOnEdge="B2A2" replacedOnIndex="27" reason="taxi:idling:randomCircling" replacedAtTime="535.00" probability="0" edges="C2C1 C1B1 B1A1 A1A2 A2B2 B2A2 A2A1 A1A0 A0B0 B0A0 A0A1 A1B1 B1C1 C1C2 C2D2 D2C2 C2D2 D2E2 E2D2 D2D1 D1C1 C1B1 B1B2 B2A2 A2A1 A1A2 A2B2 B2A2 A2A1"/>
            <route replacedOnEdge="B2A2" replacedOnIndex="27" reason="taxi:idling:randomCircling" replacedAtTime="551.00" probability="0" edges="C2C1 C1B1 B1A1 A1A2 A2B2 B2A2 A2A1 A1A0 A0B0 B0A0 A0A1 A1B1 B1C1 C1C2 C2D2 D2C2 C2D2 D2E2 E2D2 D2D1 D1C1 C1B1 B1B2 B2A2 A2A1 A1A2 A2B2 B2A2 A2A1 A1A2"/>
            <route replacedOnEdge="B2A2" replacedOnIndex="27" reason="taxi:idling:randomCircling" replacedAtTime="558.00" probability="0" edges="C2C1 C1B1 B1A1 A1A2 A2B2 B2A2 A2A1 A1A0 A0B0 B0A0 A0A1 A1B1 B1C1 C1C2 C2D2 D2C2 C2D2 D2E2 E2D2 D2D1 D1C1 C1B1 B1B2 B2A2 A2A1 A1A2 A2B2 B2A2 A2A1 A1A2 A2B2"/>
            <route replacedOnEdge="A2B2" replacedOnIndex="30" reason="taxi:idling:randomCircling" replacedAtTime="583.00" probability="0" edges="C2C1 C1B1 B1A1 A1A2 A2B2 B2A2 A2A1 A1A0 A0B0 B0A0 A0A1 A1B1 B1C1 C1C2 C2D2 D2C2 C2D2 D2E2 E2D2 D2D1 D1C1 C1B1 B1B2 B2A2 A2A1 A1A2 A2B2 B2A2 A2A1 A1A2 A2B2 B2C2"/>
            <route replacedOnEdge="B2C2" replacedOnIndex="31" reason="taxi:idling:randomCircling" replacedAtTime="608.00" probability="0" edges="C2C1 C1B1 B1A1 A1A2 A2B2 B2A2 A2A1 A1A0 A0B0 B0A0 A0A1 A1B1 B1C1 C1C2 C2D2 D2C2 C2D2 D2E2 E2D2 D2D1 D1C1 C1B1 B1B2 B2A2 A2A1 A1A2 A2B2 B2A2 A2A1 A1A2 A2B2 B2C2 C2C1"/>
            <route replacedOnEdge="B2C2" replacedOnIndex="31" reason="taxi:idling:randomCircling" replacedAtTime="621.00" probability="0" edges="C2C1 C1B1 B1A1 A1A2 A2B2 B2A2 A2A1 A1A0 A0B0 B0A0 A0A1 A1B1 B1C1 C1C2 C2D2 D2C2 C2D2 D2E2 E2D2 D2D1 D1C1 C1B1 B1B2 B2A2 A2A1 A1A2 A2B2 B2A2 A2A1 A1A2 A2B2 B2C2 C2C1 C1B1"/>
            <route replacedOnEdge="C1B1" replacedOnIndex="33" reason="taxi:idling:randomCircling" replacedAtTime="642.00" probability="0" edges="C2C1 C1B1 B1A1 A1A2 A2B2 B2A2 A2A1 A1A0 A0B0 B0A0 A0A1 A1B1 B1C1 C1C2 C2D2 D2C2 C2D2 D2E2 E2D2 D2D1 D1C1 C1B1 B1B2 B2A2 A2A1 A1A2 A2B2 B2A2 A2A1 A1A2 A2B2 B2C2 C2C1 C1B1 B1A1"/>
            <route replacedOnEdge="B1A1" replacedOnIndex="34" reason="taxi:idling:randomCircling" replacedAtTime="667.00" probability="0" edges="C2C1 C1B1 B1A1 A1A2 A2B2 B2A2 A2A1 A1A0 A0B0 B0A0 A0A1 A1B1 B1C1 C1C2 C2D2 D2C2 C2D2 D2E2 E2D2 D2D1 D1C1 C1B1 B1B2 B2A2 A2A1 A1A2 A2B2 B2A2 A2A1 A1A2 A2B2 B2C2 C2C1 C1B1 B1A1 A1A2"/>
            <route replacedOnEdge="B1A1" replacedOnIndex="34" reason="taxi:idling:randomCircling" replacedAtTime="681.00" probability="0" edges="C2C1 C1B1 B1A1 A1A2 A2B2 B2A2 A2A1 A1A0 A0B0 B0A0 A0A1 A1B1 B1C1 C1C2 C2D2 D2C2 C2D2 D2E2 E2D2 D2D1 D1C1 C1B1 B1B2 B2A2 A2A1 A1A2 A2B2 B2A2 A2A1 A1A2 A2B2 B2C2 C2C1 C1B1 B1A1 A1A2 A2B2"/>
            <route replacedOnEdge="A2B2" replacedOnIndex="36" reason="taxi:idling:randomCircling" replacedAtTime="702.00" probability="0" edges="C2C1 C1B1 B1A1 A1A2 A2B2 B2A2 A2A1 A1A0 A0B0 B0A0 A0A1 A1B1 B1C1 C1C2 C2D2 D2C2 C2D2 D2E2 E2D2 D2D1 D1C1 C1B1 B1B2 B2A2 A2A1 A1A2 A2B2 B2A2 A2A1 A1A2 A2B2 B2C2 C2C1 C1B1 B1A1 A1A2 A2B2 B2A2"/>
            <route replacedOnEdge="B2A2" replacedOnIndex="37" reason="taxi:idling:randomCircling" replacedAtTime="728.00" probability="0" edges="C2C1 C1B1 B1A1 A1A2 A2B2 B2A2 A2A1 A1A0 A0B0 B0A0 A0A1 A1B1 B1C1 C1C2 C2D2 D2C2 C2D2 D2E2 E2D2 D2D1 D1C1 C1B1 B1B2 B2A2 A2A1 A1A2 A2B2 B2A2 A2A1 A1A2 A2B2 B2C2 C2C1 C1B1 B1A1 A1A2 A2B2 B2A2 A2A1"/>
            <route replacedOnEdge="B2A2" replacedOnIndex="37" reason="taxi:idling:randomCircling" replacedAtTime="744.00" probability="0" edges="C2C1 C1B1 B1A1 A1A2 A2B2 B2A2 A2A1 A1A0 A0B0 B0A0 A0A1 A1B1 B1C1 C1C2 C2D2 D2C2 C2D2 D2E2 E2D2 D2D1 D1C1 C1B1 B1B2 B2A2 A2A1 A1A2 A2B2 B2A2 A2A1 A1A2 A2B2 B2C2 C2C1 C1B1 B1A1 A1A2 A2B2 B2A2 A2A1 A1A0"/>
            <route replacedOnEdge="B2A2" replacedOnIndex="37" reason="taxi:idling:randomCircling" replacedAtTime="751.00" probability="0" edges="C2C1 C1B1 B1A1 A1A2 A2B2 B2A2 A2A1 A1A0 A0B0 B0A0 A0A1 A1B1 B1C1 C1C2 C2D2 D2C2 C2D2 D2E2 E2D2 D2D1 D1C1 C1B1 B1B2 B2A2 A2A1 A1A2 A2B2 B2A2 A2A1 A1A2 A2B2 B2C2 C2C1 C1B1 B1A1 A1A2 A2B2 B2A2 A2A1 A1A0 A0B0"/>
            <route replacedOnEdge="A0B0" replacedOnIndex="40" reason="taxi:idling:randomCircling" replacedAtTime="773.00" probability="0" edges="C2C1 C1B1 B1A1 A1A2 A2B2 B2A2 A2A1 A1A0 A0B0 B0A0 A0A1 A1B1 B1C1 C1C2 C2D2 D2C2 C2D2 D2E2 E2D2 D2D1 D1C1 C1B1 B1B2 B2A2 A2A1 A1A2 A2B2 B2A2 A2A1 A1A2 A2B2 B2C2 C2C1 C1B1 B1A1 A1A2 A2B2 B2A2 A2A1 A1A0 A0B0 B0A0"/>
            <route replacedOnEdge="B0A0" replacedOnIndex="41" reason="taxi:idling:randomCircling" replacedAtTime="798.00" probability="0" edges="C2C1 C1B1 B1A1 A1A2 A2B2 B2A2 A2A1 A1A0 A0B0 B0A0 A0A1 A1B1 B1C1 C1C2 C2D2 D2C2 C2D2 D2E2 E2D2 D2D1 D1C1 C1B1 B1B2 B2A2 A2A1 A1A2 A2B2 B2A2 A2A1 A1A2 A2B2 B2C2 C2C1 C1B1 B1A1 A1A2 A2B2 B2A2 A2A1 A1A0 A0B0 B0A0 A0A1"/>
            <route replacedOnEdge="B0A0" replacedOnIndex="41" reason="taxi:idling:randomCircling" replacedAtTime="814.00" probability="0" edges="C2C1 C1B1 B1A1 A1A2 A2B2 B2A2 A2A1 A1A0 A0B0 B0A0 A0A1 A1B1 B1C1 C1C2 C2D2 D2C2 C2D2 D2E2 E2D2 D2D1 D1C1 C1B1 B1B2 B2A2 A2A1 A1A2 A2B2 B2A2 A2A1 A1A2 A2B2 B2C2 C2C1 C1B1 B1A1 A1A2 A2B2 B2A2 A2A1 A1A0 A0B0 B0A0 A0A1 A1A2"/>
            <route replacedOnEdge="B0A0" replacedOnIndex="41" reason="taxi:idling:randomCircling" replacedAtTime="821.00" probability="0" edges="C2C1 C1B1 B1A1 A1A2 A2B2 B2A2 A2A1 A1A0 A0B0 B0A0 A0A1 A1B1 B1C1 C1C2 C2D2 D2C2 C2D2 D2E2 E2D2 D2D1 D1C1 C1B1 B1B2 B2A2 A2A1 A1A2 A2B2 B2A2 A2A1 A1A2 A2B2 B2C2 C2C1 C1B1 B1A1 A1A2 A2B2 B2A2 A2A1 A1A0 A0B0 B0A0 A0A1 A1A2 A2B2"/>
            <route replacedOnEdge="A2B2" replacedOnIndex="44" reason="taxi:idling:randomCircling" replacedAtTime="843.00" probability="0" edges="C2C1 C1B1 B1A1 A1A2 A2B2 B2A2 A2A1 A1A0 A0B0 B0A0 A0A1 A1B1 B1C1 C1C2 C2D2 D2C2 C2D2 D2E2 E2D2 D2D1 D1C1 C1B1 B1B2 B2A2 A2A1 A1A2 A2B2 B2A2 A2A1 A1A2 A2B2 B2C2 C2C1 C1B1 B1A1 A1A2 A2B2 B2A2 A2A1 A1A0 A0B0 B0A0 A0A1 A1A2 A2B2 B2C2"/>