<?xml version="1.0" encoding="UTF-8"?>

<!-- generated on 2026-02-12T11:04:10.287605+01:00 by Eclipse SUMO sumo v1_26_0+0166-b611732c50d
This data file and the accompanying materials
are made available under the terms of the Eclipse Public License v2.0
which accompanies this distribution, and is available at
http://www.eclipse.org/legal/epl-v20.html
This file may also be made available under the following Secondary
Licenses when the conditions for such availability set forth in the Eclipse
Public License 2.0 are satisfied: GNU General Public License, version 2
or later which is available at
https://www.gnu.org/licenses/old-licenses/gpl-2.0-standalone.html
SPDX-License-Identifier: EPL-2.0 OR GPL-2.0-or-later
<sumoConfiguration xmlns:xsi="http://www.w3.org/2001/XMLSchema-instance" xsi:noNamespaceSchemaLocation="http://sumo.dlr.de/xsd/sumoConfiguration.xsd">

    <input>
        <net-file value="net.net.xml"/>
        <route-files value="input_routes.rou.xml"/>
        <additional-files value="input_additional.add.xml"/>
    </input>

    <output>
        <write-license value="true"/>
        <tripinfo-output value="tripinfos.xml"/>
        <stop-output value="stopinfos.xml"/>
    </output>

    <processing>
        <default.speeddev value="0"/>
    </processing>

    <report>
        <xml-validation value="never"/>
        <duration-log.disable value="true"/>
        <no-step-log value="true"/>
    </report>

</sumoConfiguration>
-->

<tripinfos xmlns:xsi="http://www.w3.org/2001/XMLSchema-instance" xsi:noNamespaceSchemaLocation="http://sumo.dlr.de/xsd/tripinfo_file.xsd">
    <tripinfo id="flow1.0" depart="0.00" departLane="a_0" departPos="5.10" departSpeed="0.00" departDelay="0.00" arrival="221.00" arrivalLane="a_0" arrivalPos="200.09" arrivalSpeed="13.89" duration="221.00" routeLength="194.99" waitingTime="0.00" waitingCount="0" stopTime="200.00" timeLoss="0.00" rerouteNo="0" devices="tripinfo_flow1.0" vType="DEFAULT_VEHTYPE" speedFactor="1.00" vaporized=""/>
    <tripinfo id="flow1.1" depart="5.00" departLane="a_0" departPos="5.10" departSpeed="0.00" departDelay="0.00" arrival="425.00" arrivalLane="a_0" arrivalPos="200.09" arrivalSpeed="13.89" duration="420.00" routeLength="194.99" waitingTime="197.00" waitingCount="1" stopTime="200.00" timeLoss="198.31" rerouteNo="0" devices="tripinfo_flow1.1" vType="DEFAULT_VEHTYPE" speedFactor="1.00" vaporized=""/>
    <tripinfo id="flow1.2" depart="10.00" departLane="a_0" departPos="5.10" departSpeed="0.00" departDelay="0.00" arrival="629.00" arrivalLane="a_0" arrivalPos="200.09" arrivalSpeed="13.89" duration="619.00" routeLength="194.99" waitingTime="393.00" waitingCount="2" stopTime="200.00" timeLoss="395.95" rerouteNo="0" devices="tripinfo_flow1.2" vType="DEFAULT_VEHTYPE" speedFactor="1.00" vaporized=""/>
    <tripinfo id="flow1.3" depart="15.00" departLane="a_0" departPos="5.10" departSpeed="0.00" departDelay="0.00" arrival="833.00" arrivalLane="a_0" arrivalPos="200.09" arrivalSpeed="13.89" duration="818.00" routeLength="194.99" waitingTime="590.00" waitingCount="3" stopTime="200.00" timeLoss="593.59" rerouteNo="0" devices="tripinfo_flow1.3" vType="DEFAULT_VEHTYPE" speedFactor="1.00" vaporized=""/>
    <tripinfo id="flow1.4" depart="20.00" departLane="a_0" departPos="5.10" departSpeed="0.00" departDelay="0.00" arrival="1037.00" arrivalLane="a_0" arrivalPos="200.09" arrivalSpeed="13.89" duration="1017.00" routeLength="194.99" waitingTime="787.00" waitingCount="4" stopTime="200.00" timeLoss="791.29" rerouteNo="0" devices="tripinfo_flow1.4" vType="DEFAULT_VEHTYPE" speedFactor="1.00" vaporized=""/>
    <tripinfo id="flow1.5" depart="25.00" departLane="a_0" departPos="5.10" departSpeed="0.00" departDelay="0.00" arrival="1241.00" arrivalLane="a_0" arrivalPos="200.09" arrivalSpeed="13.89" duration="1216.00" routeLength="194.99" waitingTime="984.00" waitingCount="5" stopTime="200.00" timeLoss="989.10" rerouteNo="0" devices="tripinfo_flow1.5" vType="DEFAULT_VEHTYPE" speedFactor="1.00" vaporized=""/>
    <tripinfo id="flow1.6" depart="30.00" departLane="a_0" departPos="5.10" departSpeed="0.00" departDelay="0.00" arrival="1445.00" arrivalLane="a_0" arrivalPos="200.09" arrivalSpeed="13.89" duration="1415.00" routeLength="194.99" waitingTime="1181.00" waitingCount="6" stopTime="200.00" timeLoss="1187.07" rerouteNo="0" devices="tripinfo_flow1.6" vType="DEFAULT_VEHTYPE" speedFactor="1.00" vaporized=""/>
</tripinfos>
