<?xml version="1.0" encoding="UTF-8"?>

<!-- generated on 2026-02-13T11:33:22.485459+01:00 by Eclipse SUMO sumo v1_26_0+0201-4971bf8c88b
This data file and the accompanying materials
are made available under the terms of the Eclipse Public License v2.0
which accompanies this distribution, and is available at
http://www.eclipse.org/legal/epl-v20.html
This file may also be made available under the following Secondary
Licenses when the conditions for such availability set forth in the Eclipse
Public License 2.0 are satisfied: GNU General Public License, version 2
or later which is available at
https://www.gnu.org/licenses/old-licenses/gpl-2.0-standalone.html
SPDX-License-Identifier: EPL-2.0 OR GPL-2.0-or-later
<sumoConfiguration xmlns:xsi="http://www.w3.org/2001/XMLSchema-instance" xsi:noNamespaceSchemaLocation="http://sumo.dlr.de/xsd/sumoConfiguration.xsd">

    <input>
        <net-file value="net.net.xml"/>
        <route-files value="input_routes.rou.xml"/>
    </input>

    <output>
        <write-license value="true"/>
        <fcd-output value="fcd.xml"/>
    </output>

    <time>
        <step-length value="0.25"/>
    </time>

    <processing>
        <collision.mingap-factor value="0"/>
        <default.carfollowmodel value="ACC"/>
        <default.speeddev value="0"/>
    </processing>

    <report>
        <xml-validation value="never"/>
        <no-step-log value="true"/>
    </report>

    <driver_state_device>
        <device.driverstate.probability value="1"/>
        <device.driverstate.initialAwareness value="0.5"/>
    </driver_state_device>

</sumoConfiguration>
-->

<fcd-export xmlns:xsi="http://www.w3.org/2001/XMLSchema-instance" xsi:noNamespaceSchemaLocation="http://sumo.dlr.de/xsd/fcd_file.xsd">
    <timestep time="0.00">
        <vehicle id="first" x="5.10" y="0.00" angle="90.00" type="tFirst" speed="30.00" pos="5.10" lane="0_0" slope="0.00"/>
    </timestep>
    <timestep time="0.25">
        <vehicle id="first" x="12.60" y="0.00" angle="90.00" type="tFirst" speed="30.00" pos="12.60" lane="0_0" slope="0.00"/>
    </timestep>
    <timestep time="0.50">
        <vehicle id="first" x="20.10" y="0.00" angle="90.00" type="tFirst" speed="30.00" pos="20.10" lane="0_0" slope="0.00"/>
    </timestep>
    <timestep time="0.75">
        <vehicle id="first" x="27.60" y="0.00" angle="90.00" type="tFirst" speed="30.00" pos="27.60" lane="0_0" slope="0.00"/>
    </timestep>
    <timestep time="1.00">
        <vehicle id="first" x="35.10" y="0.00" angle="90.00" type="tFirst" speed="30.00" pos="35.10" lane="0_0" slope="0.00"/>
    </timestep>
    <timestep time="1.25">
        <vehicle id="first" x="42.60" y="0.00" angle="90.00" type="tFirst" speed="30.00" pos="42.60" lane="0_0" slope="0.00"/>
    </timestep>
    <timestep time="1.50">
        <vehicle id="first" x="50.10" y="0.00" angle="90.00" type="tFirst" speed="30.00" pos="50.10" lane="0_0" slope="0.00"/>
    </timestep>
    <timestep time="1.75">
        <vehicle id="first" x="57.60" y="0.00" angle="90.00" type="tFirst" speed="30.00" pos="57.60" lane="0_0" slope="0.00"/>
    </timestep>
    <timestep time="2.00">
        <vehicle id="first" x="65.10" y="0.00" angle="90.00" type="tFirst" speed="30.00" pos="65.10" lane="0_0" slope="0.00"/>
        <vehicle id="flow.0" x="5.10" y="0.00" angle="90.00" type="tFlow" speed="31.80" pos="5.10" lane="0_0" slope="0.00"/>
    </timestep>
    <timestep time="2.25">
        <vehicle id="first" x="72.60" y="0.00" angle="90.00" type="tFirst" speed="30.00" pos="72.60" lane="0_0" slope="0.00"/>
        <vehicle id="flow.0" x="13.00" y="0.00" angle="90.00" type="tFlow" speed="31.60" pos="13.00" lane="0_0" slope="0.00"/>
    </timestep>
    <timestep time="2.50">
        <vehicle id="first" x="80.10" y="0.00" angle="90.00" type="tFirst" speed="30.00" pos="80.10" lane="0_0" slope="0.00"/>
        <vehicle id="flow.0" x="20.85" y="0.00" angle="90.00" type="tFlow" speed="31.41" pos="20.85" lane="0_0" slope="0.00"/>
    </timestep>
    <timestep time="2.75">
        <vehicle id="first" x="87.60" y="0.00" angle="90.00" type="tFirst" speed="30.00" pos="87.60" lane="0_0" slope="0.00"/>
        <vehicle id="flow.0" x="28.66" y="0.00" angle="90.00" type="tFlow" speed="31.21" pos="28.66" lane="0_0" slope="0.00"/>
    </timestep>
    <timestep time="3.00">
        <vehicle id="first" x="95.10" y="0.00" angle="90.00" type="tFirst" speed="30.00" pos="95.10" lane="0_0" slope="0.00"/>
        <vehicle id="flow.0" x="36.41" y="0.00" angle="90.00" type="tFlow" speed="31.01" pos="36.41" lane="0_0" slope="0.00"/>
    </timestep>
    <timestep time="3.25">
        <vehicle id="first" x="102.60" y="0.00" angle="90.00" type="tFirst" speed="30.00" pos="102.60" lane="0_0" slope="0.00"/>
        <vehicle id="flow.0" x="44.11" y="0.00" angle="90.00" type="tFlow" speed="30.81" pos="44.11" lane="0_0" slope="0.00"/>
    </timestep>
    <timestep time="3.50">
        <vehicle id="first" x="110.10" y="0.00" angle="90.00" type="tFirst" speed="30.00" pos="110.10" lane="0_0" slope="0.00"/>
        <vehicle id="flow.0" x="51.76" y="0.00" angle="90.00" type="tFlow" speed="30.60" pos="51.76" lane="0_0" slope="0.00"/>
    </timestep>
    <timestep time="3.75">
        <vehicle id="first" x="117.60" y="0.00" angle="90.00" type="tFirst" speed="30.00" pos="117.60" lane="0_0" slope="0.00"/>
        <vehicle id="flow.0" x="59.36" y="0.00" angle="90.00" type="tFlow" speed="30.39" pos="59.36" lane="0_0" slope="0.00"/>
    </timestep>
    <timestep time="4.00">
        <vehicle id="first" x="125.10" y="0.00" angle="90.00" type="tFirst" speed="30.00" pos="125.10" lane="0_0" slope="0.00"/>
        <vehicle id="flow.0" x="66.90" y="0.00" angle="90.00" type="tFlow" speed="30.18" pos="66.90" lane="0_0" slope="0.00"/>
        <vehicle id="flow.1" x="5.10" y="0.00" angle="90.00" type="tFlow" speed="32.08" pos="5.10" lane="0_0" slope="0.00"/>
    </timestep>
    <timestep time="4.25">
        <vehicle id="first" x="132.60" y="0.00" angle="90.00" type="tFirst" speed="30.00" pos="132.60" lane="0_0" slope="0.00"/>
        <vehicle id="flow.0" x="74.39" y="0.00" angle="90.00" type="tFlow" speed="29.96" pos="74.39" lane="0_0" slope="0.00"/>
        <vehicle id="flow.1" x="13.07" y="0.00" angle="90.00" type="tFlow" speed="31.90" pos="13.07" lane="0_0" slope="0.00"/>
    </timestep>
    <timestep time="4.50">
        <vehicle id="first" x="140.10" y="0.00" angle="90.00" type="tFirst" speed="30.00" pos="140.10" lane="0_0" slope="0.00"/>
        <vehicle id="flow.0" x="81.84" y="0.00" angle="90.00" type="tFlow" speed="29.77" pos="81.84" lane="0_0" slope="0.00"/>
        <vehicle id="flow.1" x="21.00" y="0.00" angle="90.00" type="tFlow" speed="31.71" pos="21.00" lane="0_0" slope="0.00"/>
    </timestep>
    <timestep time="4.75">
        <vehicle id="first" x="147.60" y="0.00" angle="90.00" type="tFirst" speed="30.00" pos="147.60" lane="0_0" slope="0.00"/>
        <vehicle id="flow.0" x="89.23" y="0.00" angle="90.00" type="tFlow" speed="29.58" pos="89.23" lane="0_0" slope="0.00"/>
        <vehicle id="flow.1" x="28.88" y="0.00" angle="90.00" type="tFlow" speed="31.52" pos="28.88" lane="0_0" slope="0.00"/>
    </timestep>
    <timestep time="5.00">
        <vehicle id="first" x="155.10" y="0.00" angle="90.00" type="tFirst" speed="30.00" pos="155.10" lane="0_0" slope="0.00"/>
        <vehicle id="flow.0" x="96.58" y="0.00" angle="90.00" type="tFlow" speed="29.39" pos="96.58" lane="0_0" slope="0.00"/>
        <vehicle id="flow.1" x="36.72" y="0.00" angle="90.00" type="tFlow" speed="31.33" pos="36.72" lane="0_0" slope="0.00"/>
    </timestep>
    <timestep time="5.25">
        <vehicle id="first" x="162.60" y="0.00" angle="90.00" type="tFirst" speed="30.00" pos="162.60" lane="0_0" slope="0.00"/>
        <vehicle id="flow.0" x="104.02" y="0.00" angle="90.00" type="tFlow" speed="29.77" pos="104.02" lane="0_0" slope="0.00"/>
        <vehicle id="flow.1" x="44.50" y="0.00" angle="90.00" type="tFlow" speed="31.14" pos="44.50" lane="0_0" slope="0.00"/>
    </timestep>
    <timestep time="5.50">
        <vehicle id="first" x="170.10" y="0.00" angle="90.00" type="tFirst" speed="30.00" pos="170.10" lane="0_0" slope="0.00"/>
        <vehicle id="flow.0" x="111.56" y="0.00" angle="90.00" type="tFlow" speed="30.15" pos="111.56" lane="0_0" slope="0.00"/>
        <vehicle id="flow.1" x="52.24" y="0.00" angle="90.00" type="tFlow" speed="30.94" pos="52.24" lane="0_0" slope="0.00"/>
    </timestep>
    <timestep time="5.75">
        <vehicle id="first" x="177.60" y="0.00" angle="90.00" type="tFirst" speed="30.00" pos="177.60" lane="0_0" slope="0.00"/>
        <vehicle id="flow.0" x="119.19" y="0.00" angle="90.00" type="tFlow" speed="30.52" pos="119.19" lane="0_0" slope="0.00"/>
        <vehicle id="flow.1" x="59.92" y="0.00" angle="90.00" type="tFlow" speed="30.74" pos="59.92" lane="0_0" slope="0.00"/>
    </timestep>
    <timestep time="6.00">
        <vehicle id="first" x="185.10" y="0.00" angle="90.00" type="tFirst" speed="30.00" pos="185.10" lane="0_0" slope="0.00"/>
        <vehicle id="flow.0" x="126.91" y="0.00" angle="90.00" type="tFlow" speed="30.89" pos="126.91" lane="0_0" slope="0.00"/>
        <vehicle id="flow.1" x="67.56" y="0.00" angle="90.00" type="tFlow" speed="30.54" pos="67.56" lane="0_0" slope="0.00"/>
        <vehicle id="flow.2" x="5.10" y="0.00" angle="90.00" type="tFlow" speed="32.32" pos="5.10" lane="0_0" slope="0.00"/>
    </timestep>
    <timestep time="6.25">
        <vehicle id="first" x="192.60" y="0.00" angle="90.00" type="tFirst" speed="30.00" pos="192.60" lane="0_0" slope="0.00"/>
        <vehicle id="flow.0" x="134.73" y="0.00" angle="90.00" type="tFlow" speed="31.27" pos="134.73" lane="0_0" slope="0.00"/>
        <vehicle id="flow.1" x="75.14" y="0.00" angle="90.00" type="tFlow" speed="30.33" pos="75.14" lane="0_0" slope="0.00"/>
        <vehicle id="flow.2" x="13.16" y="0.00" angle="90.00" type="tFlow" speed="32.24" pos="13.16" lane="0_0" slope="0.00"/>
    </timestep>
    <timestep time="6.50">
        <vehicle id="first" x="200.10" y="0.00" angle="90.00" type="tFirst" speed="30.00" pos="200.10" lane="0_0" slope="0.00"/>
        <vehicle id="flow.0" x="142.64" y="0.00" angle="90.00" type="tFlow" speed="31.64" pos="142.64" lane="0_0" slope="0.00"/>
        <vehicle id="flow.1" x="82.80" y="0.00" angle="90.00" type="tFlow" speed="30.66" pos="82.80" lane="0_0" slope="0.00"/>
        <vehicle id="flow.2" x="21.20" y="0.00" angle="90.00" type="tFlow" speed="32.16" pos="21.20" lane="0_0" slope="0.00"/>
    </timestep>
    <timestep time="6.75">
        <vehicle id="first" x="207.60" y="0.00" angle="90.00" type="tFirst" speed="30.00" pos="207.60" lane="0_0" slope="0.00"/>
        <vehicle id="flow.0" x="150.64" y="0.00" angle="90.00" type="tFlow" speed="32.00" pos="150.64" lane="0_0" slope="0.00"/>
        <vehicle id="flow.1" x="90.55" y="0.00" angle="90.00" type="tFlow" speed="30.99" pos="90.55" lane="0_0" slope="0.00"/>
        <vehicle id="flow.2" x="29.22" y="0.00" angle="90.00" type="tFlow" speed="32.07" pos="29.22" lane="0_0" slope="0.00"/>
    </timestep>
    <timestep time="7.00">
        <vehicle id="first" x="215.10" y="0.00" angle="90.00" type="tFirst" speed="30.00" pos="215.10" lane="0_0" slope="0.00"/>
        <vehicle id="flow.0" x="158.73" y="0.00" angle="90.00" type="tFlow" speed="32.37" pos="158.73" lane="0_0" slope="0.00"/>
        <vehicle id="flow.1" x="98.38" y="0.00" angle="90.00" type="tFlow" speed="31.32" pos="98.38" lane="0_0" slope="0.00"/>
        <vehicle id="flow.2" x="37.21" y="0.00" angle="90.00" type="tFlow" speed="31.98" pos="37.21" lane="0_0" slope="0.00"/>
    </timestep>
    <timestep time="7.25">
        <vehicle id="first" x="222.60" y="0.00" angle="90.00" type="tFirst" speed="30.00" pos="222.60" lane="0_0" slope="0.00"/>
        <vehicle id="flow.0" x="166.76" y="0.00" angle="90.00" type="tFlow" speed="32.13" pos="166.76" lane="0_0" slope="0.00"/>
        <vehicle id="flow.1" x="106.29" y="0.00" angle="90.00" type="tFlow" speed="31.65" pos="106.29" lane="0_0" slope="0.00"/>
        <vehicle id="flow.2" x="45.18" y="0.00" angle="90.00" type="tFlow" speed="31.88" pos="45.18" lane="0_0" slope="0.00"/>
    </timestep>
    <timestep time="7.50">
        <vehicle id="first" x="230.10" y="0.00" angle="90.00" type="tFirst" speed="30.00" pos="230.10" lane="0_0" slope="0.00"/>
        <vehicle id="flow.0" x="174.73" y="0.00" angle="90.00" type="tFlow" speed="31.88" pos="174.73" lane="0_0" slope="0.00"/>
        <vehicle id="flow.1" x="114.29" y="0.00" angle="90.00" type="tFlow" speed="31.97" pos="114.29" lane="0_0" slope="0.00"/>
        <vehicle id="flow.2" x="53.13" y="0.00" angle="90.00" type="tFlow" speed="31.79" pos="53.13" lane="0_0" slope="0.00"/>
    </timestep>
    <timestep time="7.75">
        <vehicle id="first" x="237.60" y="0.00" angle="90.00" type="tFirst" speed="30.00" pos="237.60" lane="0_0" slope="0.00"/>
        <vehicle id="flow.0" x="182.64" y="0.00" angle="90.00" type="tFlow" speed="31.63" pos="182.64" lane="0_0" slope="0.00"/>
        <vehicle id="flow.1" x="122.36" y="0.00" angle="90.00" type="tFlow" speed="32.30" pos="122.36" lane="0_0" slope="0.00"/>
        <vehicle id="flow.2" x="61.05" y="0.00" angle="90.00" type="tFlow" speed="31.69" pos="61.05" lane="0_0" slope="0.00"/>
    </timestep>
    <timestep time="8.00">
        <vehicle id="first" x="245.10" y="0.00" angle="90.00" type="tFirst" speed="30.00" pos="245.10" lane="0_0" slope="0.00"/>
        <vehicle id="flow.0" x="190.49" y="0.00" angle="90.00" type="tFlow" speed="31.38" pos="190.49" lane="0_0" slope="0.00"/>
        <vehicle id="flow.1" x="130.52" y="0.00" angle="90.00" type="tFlow" speed="32.62" pos="130.52" lane="0_0" slope="0.00"/>
        <vehicle id="flow.2" x="68.95" y="0.00" angle="90.00" type="tFlow" speed="31.59" pos="68.95" lane="0_0" slope="0.00"/>
    </timestep>
    <timestep time="8.25">
        <vehicle id="first" x="252.60" y="0.00" angle="90.00" type="tFirst" speed="30.00" pos="252.60" lane="0_0" slope="0.00"/>
        <vehicle id="flow.0" x="198.27" y="0.00" angle="90.00" type="tFlow" speed="31.12" pos="198.27" lane="0_0" slope="0.00"/>
        <vehicle id="flow.1" x="138.75" y="0.00" angle="90.00" type="tFlow" speed="32.94" pos="138.75" lane="0_0" slope="0.00"/>
        <vehicle id="flow.2" x="76.95" y="0.00" angle="90.00" type="tFlow" speed="32.02" pos="76.95" lane="0_0" slope="0.00"/>
    </timestep>
    <timestep time="8.50">
        <vehicle id="first" x="260.10" y="0.00" angle="90.00" type="tFirst" speed="30.00" pos="260.10" lane="0_0" slope="0.00"/>
        <vehicle id="flow.0" x="205.98" y="0.00" angle="90.00" type="tFlow" speed="30.87" pos="205.98" lane="0_0" slope="0.00"/>
        <vehicle id="flow.1" x="146.93" y="0.00" angle="90.00" type="tFlow" speed="32.70" pos="146.93" lane="0_0" slope="0.00"/>
        <vehicle id="flow.2" x="85.07" y="0.00" angle="90.00" type="tFlow" speed="32.46" pos="85.07" lane="0_0" slope="0.00"/>
    </timestep>
    <timestep time="8.75">
        <vehicle id="first" x="267.60" y="0.00" angle="90.00" type="tFirst" speed="30.00" pos="267.60" lane="0_0" slope="0.00"/>
        <vehicle id="flow.0" x="213.64" y="0.00" angle="90.00" type="tFlow" speed="30.61" pos="213.64" lane="0_0" slope="0.00"/>
        <vehicle id="flow.1" x="155.04" y="0.00" angle="90.00" type="tFlow" speed="32.46" pos="155.04" lane="0_0" slope="0.00"/>
        <vehicle id="flow.2" x="93.29" y="0.00" angle="90.00" type="tFlow" speed="32.89" pos="93.29" lane="0_0" slope="0.00"/>
    </timestep>
    <timestep time="9.00">
        <vehicle id="first" x="275.10" y="0.00" angle="90.00" type="tFirst" speed="30.00" pos="275.10" lane="0_0" slope="0.00"/>
        <vehicle id="flow.0" x="221.22" y="0.00" angle="90.00" type="tFlow" speed="30.34" pos="221.22" lane="0_0" slope="0.00"/>
        <vehicle id="flow.1" x="163.10" y="0.00" angle="90.00" type="tFlow" speed="32.22" pos="163.10" lane="0_0" slope="0.00"/>
        <vehicle id="flow.2" x="101.62" y="0.00" angle="90.00" type="tFlow" speed="33.32" pos="101.62" lane="0_0" slope="0.00"/>
    </timestep>
    <timestep time="9.25">
        <vehicle id="first" x="282.60" y="0.00" angle="90.00" type="tFirst" speed="30.00" pos="282.60" lane="0_0" slope="0.00"/>
        <vehicle id="flow.0" x="228.74" y="0.00" angle="90.00" type="tFlow" speed="30.08" pos="228.74" lane="0_0" slope="0.00"/>
        <vehicle id="flow.1" x="171.09" y="0.00" angle="90.00" type="tFlow" speed="31.98" pos="171.09" lane="0_0" slope="0.00"/>
        <vehicle id="flow.2" x="110.06" y="0.00" angle="90.00" type="tFlow" speed="33.75" pos="110.06" lane="0_0" slope="0.00"/>
    </timestep>
    <timestep time="9.50">
        <vehicle id="first" x="290.10" y="0.00" angle="90.00" type="tFirst" speed="30.00" pos="290.10" lane="0_0" slope="0.00"/>
        <vehicle id="flow.0" x="236.19" y="0.00" angle="90.00" type="tFlow" speed="29.81" pos="236.19" lane="0_0" slope="0.00"/>
        <vehicle id="flow.1" x="179.02" y="0.00" angle="90.00" type="tFlow" speed="31.73" pos="179.02" lane="0_0" slope="0.00"/>
        <vehicle id="flow.2" x="118.46" y="0.00" angle="90.00" type="tFlow" speed="33.63" pos="118.46" lane="0_0" slope="0.00"/>
    </timestep>
    <timestep time="9.75">
        <vehicle id="first" x="297.60" y="0.00" angle="90.00" type="tFirst" speed="30.00" pos="297.60" lane="0_0" slope="0.00"/>
        <vehicle id="flow.0" x="243.71" y="0.00" angle="90.00" type="tFlow" speed="30.06" pos="243.71" lane="0_0" slope="0.00"/>
        <vehicle id="flow.1" x="186.89" y="0.00" angle="90.00" type="tFlow" speed="31.48" pos="186.89" lane="0_0" slope="0.00"/>
        <vehicle id="flow.2" x="126.84" y="0.00" angle="90.00" type="tFlow" speed="33.50" pos="126.84" lane="0_0" slope="0.00"/>
    </timestep>
    <timestep time="10.00">
        <vehicle id="first" x="305.10" y="0.00" angle="90.00" type="tFirst" speed="30.00" pos="305.10" lane="0_0" slope="0.00"/>
        <vehicle id="flow.0" x="251.28" y="0.00" angle="90.00" type="tFlow" speed="30.30" pos="251.28" lane="0_0" slope="0.00"/>
        <vehicle id="flow.1" x="194.70" y="0.00" angle="90.00" type="tFlow" speed="31.23" pos="194.70" lane="0_0" slope="0.00"/>
        <vehicle id="flow.2" x="135.18" y="0.00" angle="90.00" type="tFlow" speed="33.36" pos="135.18" lane="0_0" slope="0.00"/>
    </timestep>
    <timestep time="10.25">
        <vehicle id="first" x="312.60" y="0.00" angle="90.00" type="tFirst" speed="30.00" pos="312.60" lane="0_0" slope="0.00"/>
        <vehicle id="flow.0" x="258.92" y="0.00" angle="90.00" type="tFlow" speed="30.55" pos="258.92" lane="0_0" slope="0.00"/>
        <vehicle id="flow.1" x="202.44" y="0.00" angle="90.00" type="tFlow" speed="30.97" pos="202.44" lane="0_0" slope="0.00"/>
        <vehicle id="flow.2" x="143.49" y="0.00" angle="90.00" type="tFlow" speed="33.23" pos="143.49" lane="0_0" slope="0.00"/>
    </timestep>
    <timestep time="10.50">
        <vehicle id="first" x="320.10" y="0.00" angle="90.00" type="tFirst" speed="30.00" pos="320.10" lane="0_0" slope="0.00"/>
        <vehicle id="flow.0" x="266.62" y="0.00" angle="90.00" type="tFlow" speed="30.79" pos="266.62" lane="0_0" slope="0.00"/>
        <vehicle id="flow.1" x="210.12" y="0.00" angle="90.00" type="tFlow" speed="30.71" pos="210.12" lane="0_0" slope="0.00"/>
        <vehicle id="flow.2" x="151.76" y="0.00" angle="90.00" type="tFlow" speed="33.09" pos="151.76" lane="0_0" slope="0.00"/>
    </timestep>
    <timestep time="10.75">
        <vehicle id="first" x="327.60" y="0.00" angle="90.00" type="tFirst" speed="30.00" pos="327.60" lane="0_0" slope="0.00"/>
        <vehicle id="flow.0" x="274.38" y="0.00" angle="90.00" type="tFlow" speed="31.03" pos="274.38" lane="0_0" slope="0.00"/>
        <vehicle id="flow.1" x="217.74" y="0.00" angle="90.00" type="tFlow" speed="30.48" pos="217.74" lane="0_0" slope="0.00"/>
        <vehicle id="flow.2" x="159.99" y="0.00" angle="90.00" type="tFlow" speed="32.95" pos="159.99" lane="0_0" slope="0.00"/>
    </timestep>
    <timestep time="11.00">
        <vehicle id="first" x="335.10" y="0.00" angle="90.00" type="tFirst" speed="30.00" pos="335.10" lane="0_0" slope="0.00"/>
        <vehicle id="flow.0" x="282.20" y="0.00" angle="90.00" type="tFlow" speed="31.28" pos="282.20" lane="0_0" slope="0.00"/>
        <vehicle id="flow.1" x="225.43" y="0.00" angle="90.00" type="tFlow" speed="30.76" pos="225.43" lane="0_0" slope="0.00"/>
        <vehicle id="flow.2" x="168.20" y="0.00" angle="90.00" type="tFlow" speed="32.80" pos="168.20" lane="0_0" slope="0.00"/>
    </timestep>
    <timestep time="11.25">
        <vehicle id="first" x="342.60" y="0.00" angle="90.00" type="tFirst" speed="30.00" pos="342.60" lane="0_0" slope="0.00"/>
        <vehicle id="flow.0" x="290.08" y="0.00" angle="90.00" type="tFlow" speed="31.51" pos="290.08" lane="0_0" slope="0.00"/>
        <vehicle id="flow.1" x="233.19" y="0.00" angle="90.00" type="tFlow" speed="31.05" pos="233.19" lane="0_0" slope="0.00"/>
        <vehicle id="flow.2" x="176.36" y="0.00" angle="90.00" type="tFlow" speed="32.66" pos="176.36" lane="0_0" slope="0.00"/>
    </timestep>
    <timestep time="11.50">
        <vehicle id="first" x="350.10" y="0.00" angle="90.00" type="tFirst" speed="30.00" pos="350.10" lane="0_0" slope="0.00"/>
        <vehicle id="flow.0" x="298.01" y="0.00" angle="90.00" type="tFlow" speed="31.75" pos="298.01" lane="0_0" slope="0.00"/>
        <vehicle id="flow.1" x="241.02" y="0.00" angle="90.00" type="tFlow" speed="31.33" pos="241.02" lane="0_0" slope="0.00"/>
        <vehicle id="flow.2" x="184.49" y="0.00" angle="90.00" type="tFlow" speed="32.51" pos="184.49" lane="0_0" slope="0.00"/>
    </timestep>
    <timestep time="11.75">
        <vehicle id="first" x="357.60" y="0.00" angle="90.00" type="tFirst" speed="30.00" pos="357.60" lane="0_0" slope="0.00"/>
        <vehicle id="flow.0" x="306.01" y="0.00" angle="90.00" type="tFlow" speed="31.99" pos="306.01" lane="0_0" slope="0.00"/>
        <vehicle id="flow.1" x="248.93" y="0.00" angle="90.00" type="tFlow" speed="31.61" pos="248.93" lane="0_0" slope="0.00"/>
        <vehicle id="flow.2" x="192.58" y="0.00" angle="90.00" type="tFlow" speed="32.36" pos="192.58" lane="0_0" slope="0.00"/>
    </timestep>
    <timestep time="12.00">
        <vehicle id="first" x="365.10" y="0.00" angle="90.00" type="tFirst" speed="30.00" pos="365.10" lane="0_0" slope="0.00"/>
        <vehicle id="flow.0" x="314.07" y="0.00" angle="90.00" type="tFlow" speed="32.22" pos="314.07" lane="0_0" slope="0.00"/>
        <vehicle id="flow.1" x="256.90" y="0.00" angle="90.00" type="tFlow" speed="31.88" pos="256.90" lane="0_0" slope="0.00"/>
        <vehicle id="flow.2" x="200.63" y="0.00" angle="90.00" type="tFlow" speed="32.20" pos="200.63" lane="0_0" slope="0.00"/>
    </timestep>
    <timestep time="12.25">
        <vehicle id="first" x="372.60" y="0.00" angle="90.00" type="tFirst" speed="30.00" pos="372.60" lane="0_0" slope="0.00"/>
        <vehicle id="flow.0" x="322.18" y="0.00" angle="90.00" type="tFlow" speed="32.46" pos="322.18" lane="0_0" slope="0.00"/>
        <vehicle id="flow.1" x="264.94" y="0.00" angle="90.00" type="tFlow" speed="32.16" pos="264.94" lane="0_0" slope="0.00"/>
        <vehicle id="flow.2" x="208.64" y="0.00" angle="90.00" type="tFlow" speed="32.05" pos="208.64" lane="0_0" slope="0.00"/>
    </timestep>
    <timestep time="12.50">
        <vehicle id="first" x="380.10" y="0.00" angle="90.00" type="tFirst" speed="30.00" pos="380.10" lane="0_0" slope="0.00"/>
        <vehicle id="flow.0" x="330.23" y="0.00" angle="90.00" type="tFlow" speed="32.21" pos="330.23" lane="0_0" slope="0.00"/>
        <vehicle id="flow.1" x="273.05" y="0.00" angle="90.00" type="tFlow" speed="32.44" pos="273.05" lane="0_0" slope="0.00"/>
        <vehicle id="flow.2" x="216.61" y="0.00" angle="90.00" type="tFlow" speed="31.89" pos="216.61" lane="0_0" slope="0.00"/>
    </timestep>
    <timestep time="12.75">
        <vehicle id="first" x="387.60" y="0.00" angle="90.00" type="tFirst" speed="30.00" pos="387.60" lane="0_0" slope="0.00"/>
        <vehicle id="flow.0" x="338.22" y="0.00" angle="90.00" type="tFlow" speed="31.96" pos="338.22" lane="0_0" slope="0.00"/>
        <vehicle id="flow.1" x="281.22" y="0.00" angle="90.00" type="tFlow" speed="32.71" pos="281.22" lane="0_0" slope="0.00"/>
        <vehicle id="flow.2" x="224.54" y="0.00" angle="90.00" type="tFlow" speed="31.72" pos="224.54" lane="0_0" slope="0.00"/>
    </timestep>
    <timestep time="13.00">
        <vehicle id="first" x="395.10" y="0.00" angle="90.00" type="tFirst" speed="30.00" pos="395.10" lane="0_0" slope="0.00"/>
        <vehicle id="flow.0" x="346.15" y="0.00" angle="90.00" type="tFlow" speed="31.71" pos="346.15" lane="0_0" slope="0.00"/>
        <vehicle id="flow.1" x="289.47" y="0.00" angle="90.00" type="tFlow" speed="32.98" pos="289.47" lane="0_0" slope="0.00"/>
        <vehicle id="flow.2" x="232.58" y="0.00" angle="90.00" type="tFlow" speed="32.14" pos="232.58" lane="0_0" slope="0.00"/>
    </timestep>
    <timestep time="13.25">
        <vehicle id="first" x="402.60" y="0.00" angle="90.00" type="tFirst" speed="30.00" pos="402.60" lane="0_0" slope="0.00"/>
        <vehicle id="flow.0" x="354.01" y="0.00" angle="90.00" type="tFlow" speed="31.45" pos="354.01" lane="0_0" slope="0.00"/>
        <vehicle id="flow.1" x="297.78" y="0.00" angle="90.00" type="tFlow" speed="33.25" pos="297.78" lane="0_0" slope="0.00"/>
        <vehicle id="flow.2" x="240.71" y="0.00" angle="90.00" type="tFlow" speed="32.55" pos="240.71" lane="0_0" slope="0.00"/>
    </timestep>
    <timestep time="13.50">
        <vehicle id="first" x="410.10" y="0.00" angle="90.00" type="tFirst" speed="30.00" pos="410.10" lane="0_0" slope="0.00"/>
        <vehicle id="flow.0" x="361.81" y="0.00" angle="90.00" type="tFlow" speed="31.20" pos="361.81" lane="0_0" slope="0.00"/>
        <vehicle id="flow.1" x="306.16" y="0.00" angle="90.00" type="tFlow" speed="33.52" pos="306.16" lane="0_0" slope="0.00"/>
        <vehicle id="flow.2" x="248.95" y="0.00" angle="90.00" type="tFlow" speed="32.95" pos="248.95" lane="0_0" slope="0.00"/>
    </timestep>
    <timestep time="13.75">
        <vehicle id="first" x="417.60" y="0.00" angle="90.00" type="tFirst" speed="30.00" pos="417.60" lane="0_0" slope="0.00"/>
        <vehicle id="flow.0" x="369.54" y="0.00" angle="90.00" type="tFlow" speed="30.94" pos="369.54" lane="0_0" slope="0.00"/>
        <vehicle id="flow.1" x="314.47" y="0.00" angle="90.00" type="tFlow" speed="33.23" pos="314.47" lane="0_0" slope="0.00"/>
        <vehicle id="flow.2" x="257.29" y="0.00" angle="90.00" type="tFlow" speed="33.36" pos="257.29" lane="0_0" slope="0.00"/>
    </timestep>
    <timestep time="14.00">
        <vehicle id="first" x="425.10" y="0.00" angle="90.00" type="tFirst" speed="30.00" pos="425.10" lane="0_0" slope="0.00"/>
        <vehicle id="flow.0" x="377.21" y="0.00" angle="90.00" type="tFlow" speed="30.68" pos="377.21" lane="0_0" slope="0.00"/>
        <vehicle id="flow.1" x="322.71" y="0.00" angle="90.00" type="tFlow" speed="32.93" pos="322.71" lane="0_0" slope="0.00"/>
        <vehicle id="flow.2" x="265.73" y="0.00" angle="90.00" type="tFlow" speed="33.77" pos="265.73" lane="0_0" slope="0.00"/>
    </timestep>
    <timestep time="14.25">
        <vehicle id="first" x="432.60" y="0.00" angle="90.00" type="tFirst" speed="30.00" pos="432.60" lane="0_0" slope="0.00"/>
        <vehicle id="flow.0" x="384.82" y="0.00" angle="90.00" type="tFlow" speed="30.41" pos="384.82" lane="0_0" slope="0.00"/>
        <vehicle id="flow.1" x="330.87" y="0.00" angle="90.00" type="tFlow" speed="32.64" pos="330.87" lane="0_0" slope="0.00"/>
        <vehicle id="flow.2" x="274.28" y="0.00" angle="90.00" type="tFlow" speed="34.18" pos="274.28" lane="0_0" slope="0.00"/>
    </timestep>
    <timestep time="14.50">
        <vehicle id="first" x="440.10" y="0.00" angle="90.00" type="tFirst" speed="30.00" pos="440.10" lane="0_0" slope="0.00"/>
        <vehicle id="flow.0" x="392.46" y="0.00" angle="90.00" type="tFlow" speed="30.56" pos="392.46" lane="0_0" slope="0.00"/>
        <vehicle id="flow.1" x="338.95" y="0.00" angle="90.00" type="tFlow" speed="32.33" pos="338.95" lane="0_0" slope="0.00"/>
        <vehicle id="flow.2" x="282.92" y="0.00" angle="90.00" type="tFlow" speed="34.58" pos="282.92" lane="0_0" slope="0.00"/>
    </timestep>
    <timestep time="14.75">
        <vehicle id="first" x="447.60" y="0.00" angle="90.00" type="tFirst" speed="30.00" pos="447.60" lane="0_0" slope="0.00"/>
        <vehicle id="flow.0" x="400.14" y="0.00" angle="90.00" type="tFlow" speed="30.71" pos="400.14" lane="0_0" slope="0.00"/>
        <vehicle id="flow.1" x="346.96" y="0.00" angle="90.00" type="tFlow" speed="32.03" pos="346.96" lane="0_0" slope="0.00"/>
        <vehicle id="flow.2" x="291.51" y="0.00" angle="90.00" type="tFlow" speed="34.34" pos="291.51" lane="0_0" slope="0.00"/>
    </timestep>
    <timestep time="15.00">
        <vehicle id="first" x="455.10" y="0.00" angle="90.00" type="tFirst" speed="30.00" pos="455.10" lane="0_0" slope="0.00"/>
        <vehicle id="flow.0" x="407.85" y="0.00" angle="90.00" type="tFlow" speed="30.86" pos="407.85" lane="0_0" slope="0.00"/>
        <vehicle id="flow.1" x="354.89" y="0.00" angle="90.00" type="tFlow" speed="31.72" pos="354.89" lane="0_0" slope="0.00"/>
        <vehicle id="flow.2" x="300.03" y="0.00" angle="90.00" type="tFlow" speed="34.09" pos="300.03" lane="0_0" slope="0.00"/>
    </timestep>
    <timestep time="15.25">
        <vehicle id="first" x="462.60" y="0.00" angle="90.00" type="tFirst" speed="30.00" pos="462.60" lane="0_0" slope="0.00"/>
        <vehicle id="flow.0" x="415.60" y="0.00" angle="90.00" type="tFlow" speed="31.00" pos="415.60" lane="0_0" slope="0.00"/>
        <vehicle id="flow.1" x="362.74" y="0.00" angle="90.00" type="tFlow" speed="31.41" pos="362.74" lane="0_0" slope="0.00"/>