<?xml version="1.0" encoding="UTF-8"?>

<!-- generated on 2026-02-17T08:43:40.980319+01:00 by Eclipse SUMO sumo v1_26_0+0240-ea44360f0d5
This data file and the accompanying materials
are made available under the terms of the Eclipse Public License v2.0
which accompanies this distribution, and is available at
http://www.eclipse.org/legal/epl-v20.html
This file may also be made available under the following Secondary
Licenses when the conditions for such availability set forth in the Eclipse
Public License 2.0 are satisfied: GNU General Public License, version 2
or later which is available at
https://www.gnu.org/licenses/old-licenses/gpl-2.0-standalone.html
SPDX-License-Identifier: EPL-2.0 OR GPL-2.0-or-later
<sumoConfiguration xmlns:xsi="http://www.w3.org/2001/XMLSchema-instance" xsi:noNamespaceSchemaLocation="http://sumo.dlr.de/xsd/sumoConfiguration.xsd">

    <input>
        <net-file value="net.net.xml"/>
        <route-files value="input_routes.rou.xml"/>
        <additional-files value="input_additional.add.xml"/>
    </input>

    <output>
        <write-license value="true"/>
        <fcd-output value="fcd.xml"/>
        <fcd-output.signals value="true"/>
    </output>

    <processing>
        <default.speeddev value="0"/>
    </processing>

    <report>
        <xml-validation value="never"/>
        <duration-log.disable value="true"/>
        <no-step-log value="true"/>
    </report>

</sumoConfiguration>
-->

<fcd-export xmlns:xsi="http://www.w3.org/2001/XMLSchema-instance" xsi:noNamespaceSchemaLocation="http://sumo.dlr.de/xsd/fcd_file.xsd">
    <timestep time="0.00">
        <vehicle id="v0" x="715.11" y="269.25" z="60.00" angle="18.28" type="DEFAULT_VEHTYPE" speed="0.00" pos="190.00" lane="a_0" slope="0.00" signals="0"/>
    </timestep>
    <timestep time="1.00">
        <vehicle id="v0" x="715.45" y="270.28" z="60.00" angle="18.37" type="DEFAULT_VEHTYPE" speed="1.10" pos="191.10" lane="a_0" slope="0.00" signals="1"/>
    </timestep>
    <timestep time="2.00">
        <vehicle id="v0" x="716.15" y="272.33" z="60.00" angle="18.55" type="DEFAULT_VEHTYPE" speed="2.20" pos="193.30" lane="a_0" slope="0.00" signals="1"/>
    </timestep>
    <timestep time="3.00">
        <vehicle id="v0" x="717.19" y="275.41" z="60.00" angle="18.67" type="DEFAULT_VEHTYPE" speed="3.30" pos="196.60" lane="a_0" slope="0.00" signals="1"/>
    </timestep>
    <timestep time="4.00">
        <vehicle id="v0" x="718.57" y="279.51" z="60.00" angle="18.67" type="DEFAULT_VEHTYPE" speed="4.40" pos="201.00" lane="a_0" slope="0.00" signals="1"/>
    </timestep>
    <timestep time="5.00">
        <vehicle id="v0" x="720.27" y="284.65" z="60.00" angle="18.41" type="DEFAULT_VEHTYPE" speed="5.50" pos="206.50" lane="a_0" slope="0.00" signals="1"/>
    </timestep>
    <timestep time="6.00">
        <vehicle id="v0" x="721.30" y="287.94" z="60.00" angle="17.98" type="DEFAULT_VEHTYPE" speed="3.50" pos="210.00" lane="a_0" slope="0.00" signals="9"/>
    </timestep>
    <timestep time="7.00">
        <vehicle id="v0" x="745.82" y="285.90" z="60.00" angle="63.04" type="DEFAULT_VEHTYPE" speed="0.00" pos="210.00" lane="a_0" slope="0.00" signals="0"/>
    </timestep>
    <timestep time="8.00">
        <vehicle id="v0" x="745.82" y="285.90" z="60.00" angle="63.04" type="DEFAULT_VEHTYPE" speed="0.00" pos="210.00" lane="a_0" slope="0.00" signals="0"/>
    </timestep>
    <timestep time="9.00">
        <vehicle id="v0" x="745.82" y="285.90" z="60.00" angle="63.04" type="DEFAULT_VEHTYPE" speed="0.00" pos="210.00" lane="a_0" slope="0.00" signals="0"/>
    </timestep>
    <timestep time="10.00">
        <vehicle id="v0" x="745.82" y="285.90" z="60.00" angle="63.04" type="DEFAULT_VEHTYPE" speed="0.00" pos="210.00" lane="a_0" slope="0.00" signals="0"/>
    </timestep>
    <timestep time="11.00">
        <vehicle id="v0" x="745.82" y="285.90" z="60.00" angle="63.04" type="DEFAULT_VEHTYPE" speed="0.00" pos="210.00" lane="a_0" slope="0.00" signals="0"/>
    </timestep>
    <timestep time="12.00">
        <vehicle id="v0" x="745.82" y="285.90" z="60.00" angle="63.04" type="DEFAULT_VEHTYPE" speed="0.00" pos="210.00" lane="a_0" slope="0.00" signals="0"/>
    </timestep>
    <timestep time="13.00">
        <vehicle id="v0" x="745.82" y="285.90" z="60.00" angle="63.04" type="DEFAULT_VEHTYPE" speed="0.00" pos="210.00" lane="a_0" slope="0.00" signals="0"/>
    </timestep>
    <timestep time="14.00">
        <vehicle id="v0" x="745.82" y="285.90" z="60.00" angle="63.04" type="DEFAULT_VEHTYPE" speed="0.00" pos="210.00" lane="a_0" slope="0.00" signals="0"/>
    </timestep>
    <timestep time="15.00">
        <vehicle id="v0" x="745.82" y="285.90" z="60.00" angle="63.04" type="DEFAULT_VEHTYPE" speed="0.00" pos="210.00" lane="a_0" slope="0.00" signals="0"/>
    </timestep>
    <timestep time="16.00">
        <vehicle id="v0" x="745.82" y="285.90" z="60.00" angle="63.04" type="DEFAULT_VEHTYPE" speed="0.00" pos="210.00" lane="a_0" slope="0.00" signals="0"/>
    </timestep>
    <timestep time="17.00">
        <vehicle id="v0" x="721.63" y="288.97" z="60.00" angle="17.85" type="DEFAULT_VEHTYPE" speed="1.10" pos="211.10" lane="a_0" slope="0.00" signals="0"/>
    </timestep>
    <timestep time="18.00">
        <vehicle id="v0" x="722.28" y="291.04" z="60.00" angle="17.58" type="DEFAULT_VEHTYPE" speed="2.20" pos="213.30" lane="a_0" slope="0.00" signals="0"/>
    </timestep>
    <timestep time="19.00">
        <vehicle id="v0" x="723.26" y="294.13" z="60.00" angle="17.53" type="DEFAULT_VEHTYPE" speed="3.30" pos="216.60" lane="a_0" slope="0.00" signals="0"/>
    </timestep>
    <timestep time="20.00">
        <vehicle id="v0" x="724.57" y="298.26" z="60.00" angle="17.53" type="DEFAULT_VEHTYPE" speed="4.40" pos="221.00" lane="a_0" slope="0.00" signals="0"/>
    </timestep>
    <timestep time="21.00">
        <vehicle id="v0" x="726.28" y="303.40" z="60.00" angle="18.11" type="DEFAULT_VEHTYPE" speed="5.50" pos="226.50" lane="a_0" slope="0.00" signals="0"/>
    </timestep>
    <timestep time="22.00">
        <vehicle id="v0" x="728.47" y="309.52" z="60.00" angle="19.62" type="DEFAULT_VEHTYPE" speed="6.60" pos="233.10" lane="a_0" slope="0.00" signals="0"/>
    </timestep>
    <timestep time="23.00">
        <vehicle id="v0" x="731.02" y="316.66" z="60.00" angle="19.66" type="DEFAULT_VEHTYPE" speed="7.70" pos="240.80" lane="a_0" slope="0.00" signals="0"/>
    </timestep>
    <timestep time="24.00">
        <vehicle id="v0" x="733.70" y="324.88" z="59.66" angle="18.14" type="DEFAULT_VEHTYPE" speed="8.80" pos="249.60" lane="a_0" slope="-1.20" signals="0"/>
    </timestep>
    <timestep time="25.00">
        <vehicle id="v0" x="736.64" y="334.16" z="59.16" angle="17.58" type="DEFAULT_VEHTYPE" speed="9.90" pos="259.50" lane="a_0" slope="-2.92" signals="0"/>
    </timestep>
    <timestep time="26.00">
        <vehicle id="v0" x="739.51" y="344.53" z="58.01" angle="15.04" type="DEFAULT_VEHTYPE" speed="11.00" pos="270.50" lane="a_0" slope="-5.07" signals="0"/>
    </timestep>
    <timestep time="27.00">
        <vehicle id="v0" x="742.55" y="355.98" z="57.00" angle="14.96" type="DEFAULT_VEHTYPE" speed="12.10" pos="282.60" lane="a_0" slope="-5.56" signals="0"/>
    </timestep>
    <timestep time="28.00">
        <vehicle id="v0" x="745.88" y="368.15" z="55.20" angle="15.28" type="DEFAULT_VEHTYPE" speed="13.20" pos="295.80" lane="a_0" slope="-6.47" signals="0"/>
    </timestep>
    <timestep time="29.00">
        <vehicle id="v0" x="752.18" y="389.05" z="51.00" angle="17.17" type="DEFAULT_VEHTYPE" speed="13.89" pos="3.29" lane="b_0" slope="-12.22" signals="0"/>
    </timestep>
    <timestep time="30.00">
        <vehicle id="v0" x="756.80" y="401.71" z="51.00" angle="20.06" type="DEFAULT_VEHTYPE" speed="13.89" pos="17.18" lane="b_0" slope="0.00" signals="0"/>
    </timestep>
    <timestep time="31.00">
        <vehicle id="v0" x="761.45" y="414.35" z="51.00" angle="20.20" type="DEFAULT_VEHTYPE" speed="13.89" pos="31.07" lane="b_0" slope="-0.01" signals="0"/>
    </timestep>
    <timestep time="32.00">
        <vehicle id="v0" x="765.95" y="427.03" z="50.26" angle="19.54" type="DEFAULT_VEHTYPE" speed="13.89" pos="44.96" lane="b_0" slope="-2.65" signals="1"/>
    </timestep>
    <timestep time="33.00">
        <vehicle id="v0" x="770.61" y="439.64" z="50.46" angle="20.67" type="DEFAULT_VEHTYPE" speed="13.89" pos="58.85" lane="b_0" slope="0.23" signals="1"/>
    </timestep>
    <timestep time="34.00">
        <vehicle id="v0" x="774.06" y="448.75" z="50.98" angle="20.70" type="DEFAULT_VEHTYPE" speed="10.05" pos="68.90" lane="b_0" slope="3.04" signals="9"/>
    </timestep>
    <timestep time="35.00">
        <vehicle id="v0" x="775.73" y="454.37" z="51.00" angle="18.01" type="DEFAULT_VEHTYPE" speed="6.05" pos="74.95" lane="b_0" slope="2.00" signals="9"/>
    </timestep>
    <timestep time="36.00">
        <vehicle id="v0" x="776.29" y="456.28" z="51.00" angle="17.04" type="DEFAULT_VEHTYPE" speed="2.05" pos="77.00" lane="b_0" slope="1.62" signals="9"/>
    </timestep>
    <timestep time="37.00">
        <vehicle id="v0" x="779.30" y="455.18" z="51.00" angle="16.33" type="DEFAULT_VEHTYPE" speed="0.00" pos="77.00" lane="b_0" slope="1.59" signals="0"/>
    </timestep>
    <timestep time="38.00">
        <vehicle id="v0" x="779.30" y="455.18" z="51.00" angle="16.33" type="DEFAULT_VEHTYPE" speed="0.00" pos="77.00" lane="b_0" slope="1.59" signals="0"/>
    </timestep>
    <timestep time="39.00">
        <vehicle id="v0" x="779.30" y="455.18" z="51.00" angle="16.33" type="DEFAULT_VEHTYPE" speed="0.00" pos="77.00" lane="b_0" slope="1.59" signals="0"/>
    </timestep>
    <timestep time="40.00">
        <vehicle id="v0" x="779.30" y="455.18" z="51.00" angle="16.33" type="DEFAULT_VEHTYPE" speed="0.00" pos="77.00" lane="b_0" slope="1.59" signals="0"/>
    </timestep>
    <timestep time="41.00">
        <vehicle id="v0" x="779.30" y="455.18" z="51.00" angle="16.33" type="DEFAULT_VEHTYPE" speed="0.00" pos="77.00" lane="b_0" slope="1.59" signals="0"/>
    </timestep>
    <timestep time="42.00">
        <vehicle id="v0" x="779.30" y="455.18" z="51.00" angle="16.33" type="DEFAULT_VEHTYPE" speed="0.00" pos="77.00" lane="b_0" slope="1.59" signals="0"/>
    </timestep>
    <timestep time="43.00">
        <vehicle id="v0" x="779.30" y="455.18" z="51.00" angle="16.33" type="DEFAULT_VEHTYPE" speed="0.00" pos="77.00" lane="b_0" slope="1.59" signals="0"/>
    </timestep>
    <timestep time="44.00">
        <vehicle id="v0" x="779.30" y="455.18" z="51.00" angle="16.33" type="DEFAULT_VEHTYPE" speed="0.00" pos="77.00" lane="b_0" slope="1.59" signals="0"/>
    </timestep>
    <timestep time="45.00">
        <vehicle id="v0" x="779.30" y="455.18" z="51.00" angle="16.33" type="DEFAULT_VEHTYPE" speed="0.00" pos="77.00" lane="b_0" slope="1.59" signals="0"/>
    </timestep>
    <timestep time="46.00">
        <vehicle id="v0" x="779.30" y="455.18" z="51.00" angle="16.33" type="DEFAULT_VEHTYPE" speed="0.00" pos="77.00" lane="b_0" slope="1.59" signals="0"/>
    </timestep>
    <timestep time="47.00">
        <vehicle id="v0" x="776.59" y="457.30" z="51.00" angle="16.52" type="DEFAULT_VEHTYPE" speed="1.10" pos="78.10" lane="b_0" slope="1.41" signals="0"/>
    </timestep>
    <timestep time="48.00">
        <vehicle id="v0" x="777.19" y="459.35" z="51.00" angle="16.33" type="DEFAULT_VEHTYPE" speed="2.20" pos="80.30" lane="b_0" slope="1.01" signals="0"/>
    </timestep>
    <timestep time="49.00">
        <vehicle id="v0" x="778.09" y="462.42" z="51.00" angle="16.33" type="DEFAULT_VEHTYPE" speed="3.30" pos="83.60" lane="b_0" slope="0.40" signals="0"/>
    </timestep>
    <timestep time="50.00">
        <vehicle id="v0" x="779.45" y="466.46" z="51.25" angle="17.42" type="DEFAULT_VEHTYPE" speed="4.40" pos="88.00" lane="b_0" slope="0.90" signals="0"/>
    </timestep>
    <timestep time="51.00">
        <vehicle id="v0" x="781.20" y="471.48" z="51.65" angle="19.14" type="DEFAULT_VEHTYPE" speed="5.50" pos="93.50" lane="b_0" slope="2.31" signals="0"/>
    </timestep>
    <timestep time="52.00">
        <vehicle id="v0" x="783.25" y="477.52" z="52.18" angle="18.85" type="DEFAULT_VEHTYPE" speed="6.60" pos="100.10" lane="b_0" slope="4.22" signals="0"/>
    </timestep>
    <timestep time="53.00">
        <vehicle id="v0" x="785.43" y="484.62" z="52.99" angle="17.12" type="DEFAULT_VEHTYPE" speed="7.70" pos="107.80" lane="b_0" slope="5.40" signals="0"/>
    </timestep>
    <timestep time="54.00">
        <vehicle id="v0" x="787.93" y="492.73" z="53.92" angle="17.12" type="DEFAULT_VEHTYPE" speed="8.80" pos="116.60" lane="b_0" slope="6.27" signals="0"/>
    </timestep>
    <timestep time="55.00">
        <vehicle id="v0" x="790.57" y="501.95" z="54.00" angle="15.91" type="DEFAULT_VEHTYPE" speed="9.90" pos="126.50" lane="b_0" slope="2.78" signals="0"/>
    </timestep>
    <timestep time="56.00">
        <vehicle id="v0" x="793.51" y="512.21" z="54.02" angle="15.98" type="DEFAULT_VEHTYPE" speed="11.00" pos="137.50" lane="b_0" slope="0.09" signals="0"/>
    </timestep>
    <timestep time="57.00">
        <vehicle id="v0" x="797.01" y="523.39" z="54.64" angle="17.41" type="DEFAULT_VEHTYPE" speed="12.10" pos="149.60" lane="b_0" slope="2.28" signals="0"/>
    </timestep>
    <timestep time="58.00">
        <vehicle id="v0" x="800.87" y="535.58" z="55.31" angle="17.62" type="DEFAULT_VEHTYPE" speed="13.20" pos="162.80" lane="b_0" slope="3.01" signals="0"/>
    </timestep>
    <timestep time="59.00">
        <vehicle id="v0" x="804.97" y="548.40" z="56.02" angle="17.72" type="DEFAULT_VEHTYPE" speed="13.89" pos="176.69" lane="b_0" slope="3.04" signals="0"/>
    </timestep>
    <timestep time="60.00">
        <vehicle id="v0" x="809.01" y="561.23" z="56.76" angle="17.49" type="DEFAULT_VEHTYPE" speed="13.89" pos="190.58" lane="b_0" slope="3.13" signals="0"/>
    </timestep>
    <timestep time="61.00">
        <vehicle id="v0" x="813.31" y="573.99" z="57.00" angle="19.12" type="DEFAULT_VEHTYPE" speed="13.89" pos="204.47" lane="b_0" slope="1.34" signals="0"/>
    </timestep>
    <timestep time="62.00">
        <vehicle id="v0" x="817.46" y="586.71" z="57.89" angle="17.58" type="DEFAULT_VEHTYPE" speed="13.89" pos="218.36" lane="b_0" slope="3.22" signals="1"/>
    </timestep>
    <timestep time="63.00">
        <vehicle id="v0" x="821.24" y="599.43" z="60.11" angle="16.70" type="DEFAULT_VEHTYPE" speed="13.89" pos="232.25" lane="b_0" slope="9.71" signals="1"/>
    </timestep>
    <timestep time="64.00">
        <vehicle id="v0" x="825.16" y="611.33" z="60.74" angle="18.23" type="DEFAULT_VEHTYPE" speed="12.94" pos="245.19" lane="b_0" slope="3.46" signals="1"/>
    </timestep>
    <timestep time="65.00">
        <vehicle id="v0" x="827.89" y="619.55" z="61.00" angle="18.41" type="DEFAULT_VEHTYPE" speed="8.94" pos="254.12" lane="b_0" slope="2.24" signals="9"/>
    </timestep>
    <timestep time="66.00">
        <vehicle id="v0" x="829.43" y="624.09" z="61.00" angle="18.66" type="DEFAULT_VEHTYPE" speed="4.94" pos="259.06" lane="b_0" slope="1.38" signals="9"/>
    </timestep>
    <timestep time="67.00">
        <vehicle id="v0" x="829.72" y="624.95" z="61.00" angle="18.70" type="DEFAULT_VEHTYPE" speed="0.94" pos="260.00" lane="b_0" slope="1.22" signals="9"/>
    </timestep>
    <timestep time="68.00">
        <vehicle id="v0" x="853.00" y="623.00" z="0.00" angle="150.00" type="DEFAULT_VEHTYPE" speed="0.00" pos="260.00" lane="b_0" slope="0.00" signals="0"/>
    </timestep>
    <timestep time="69.00">
        <vehicle id="v0" x="853.00" y="623.00" z="0.00" angle="150.00" type="DEFAULT_VEHTYPE" speed="0.00" pos="260.00" lane="b_0" slope="0.00" signals="0"/>
    </timestep>
    <timestep time="70.00">
        <vehicle id="v0" x="853.00" y="623.00" z="0.00" angle="150.00" type="DEFAULT_VEHTYPE" speed="0.00" pos="260.00" lane="b_0" slope="0.00" signals="0"/>
    </timestep>
    <timestep time="71.00">
        <vehicle id="v0" x="853.00" y="623.00" z="0.00" angle="150.00" type="DEFAULT_VEHTYPE" speed="0.00" pos="260.00" lane="b_0" slope="0.00" signals="0"/>
    </timestep>
    <timestep time="72.00">
        <vehicle id="v0" x="853.00" y="623.00" z="0.00" angle="150.00" type="DEFAULT_VEHTYPE" speed="0.00" pos="260.00" lane="b_0" slope="0.00" signals="0"/>
    </timestep>
    <timestep time="73.00">
        <vehicle id="v0" x="853.00" y="623.00" z="0.00" angle="150.00" type="DEFAULT_VEHTYPE" speed="0.00" pos="260.00" lane="b_0" slope="0.00" signals="0"/>
    </timestep>
    <timestep time="74.00">
        <vehicle id="v0" x="853.00" y="623.00" z="0.00" angle="150.00" type="DEFAULT_VEHTYPE" speed="0.00" pos="260.00" lane="b_0" slope="0.00" signals="0"/>
    </timestep>
    <timestep time="75.00">
        <vehicle id="v0" x="853.00" y="623.00" z="0.00" angle="150.00" type="DEFAULT_VEHTYPE" speed="0.00" pos="260.00" lane="b_0" slope="0.00" signals="0"/>
    </timestep>
    <timestep time="76.00">
        <vehicle id="v0" x="853.00" y="623.00" z="0.00" angle="150.00" type="DEFAULT_VEHTYPE" speed="0.00" pos="260.00" lane="b_0" slope="0.00" signals="0"/>
    </timestep>
    <timestep time="77.00">
        <vehicle id="v0" x="853.00" y="623.00" z="0.00" angle="150.00" type="DEFAULT_VEHTYPE" speed="0.00" pos="260.00" lane="b_0" slope="0.00" signals="0"/>
    </timestep>
    <timestep time="78.00">
        <vehicle id="v0" x="830.06" y="625.96" z="61.00" angle="18.70" type="DEFAULT_VEHTYPE" speed="1.10" pos="261.10" lane="b_0" slope="1.03" signals="0"/>
    </timestep>
    <timestep time="79.00">
        <vehicle id="v0" x="830.75" y="627.98" z="61.00" angle="18.70" type="DEFAULT_VEHTYPE" speed="2.20" pos="263.30" lane="b_0" slope="0.64" signals="0"/>
    </timestep>
    <timestep time="80.00">
        <vehicle id="v0" x="831.77" y="631.01" z="61.00" angle="18.70" type="DEFAULT_VEHTYPE" speed="3.30" pos="266.60" lane="b_0" slope="0.07" signals="0"/>
    </timestep>
    <timestep time="81.00">
        <vehicle id="v0" x="833.15" y="635.05" z="61.06" angle="18.73" type="DEFAULT_VEHTYPE" speed="4.40" pos="271.00" lane="b_0" slope="0.20" signals="0"/>
    </timestep>
    <timestep time="82.00">
        <vehicle id="v0" x="834.90" y="640.06" z="61.59" angle="19.09" type="DEFAULT_VEHTYPE" speed="5.50" pos="276.50" lane="b_0" slope="2.12" signals="0"/>
    </timestep>
    <timestep time="83.00">
        <vehicle id="v0" x="837.00" y="646.07" z="62.23" angle="19.29" type="DEFAULT_VEHTYPE" speed="6.60" pos="283.10" lane="b_0" slope="4.42" signals="0"/>
    </timestep>
    <timestep time="84.00">
        <vehicle id="v0" x="839.46" y="653.09" z="62.98" angle="19.29" type="DEFAULT_VEHTYPE" speed="7.70" pos="290.80" lane="b_0" slope="5.74" signals="0"/>
    </timestep>
    <timestep time="85.00">
        <vehicle id="v0" x="842.00" y="661.15" z="64.11" angle="17.57" type="DEFAULT_VEHTYPE" speed="8.80" pos="299.60" lane="b_0" slope="6.76" signals="0"/>
    </timestep>
    <timestep time="86.00"/>
</fcd-export>
