<?xml version="1.0" encoding="UTF-8"?>

<!-- generated on 2026-02-17T08:42:49.853160+01:00 by Eclipse SUMO sumo v1_26_0+0239-c56d2baccde
This data file and the accompanying materials
are made available under the terms of the Eclipse Public License v2.0
which accompanies this distribution, and is available at
http://www.eclipse.org/legal/epl-v20.html
This file may also be made available under the following Secondary
Licenses when the conditions for such availability set forth in the Eclipse
Public License 2.0 are satisfied: GNU General Public License, version 2
or later which is available at
https://www.gnu.org/licenses/old-licenses/gpl-2.0-standalone.html
SPDX-License-Identifier: EPL-2.0 OR GPL-2.0-or-later
<sumoConfiguration xmlns:xsi="http://www.w3.org/2001/XMLSchema-instance" xsi:noNamespaceSchemaLocation="http://sumo.dlr.de/xsd/sumoConfiguration.xsd">

    <input>
        <net-file value="net.net.xml"/>
        <route-files value="input_routes.rou.xml"/>
        <additional-files value="input_additional.add.xml"/>
    </input>

    <output>
        <write-license value="true"/>
        <tripinfo-output value="tripinfos.xml"/>
        <tripinfo-output.write-unfinished value="true"/>
        <vehroute-output value="vehroutes.xml"/>
        <vehroute-output.write-unfinished value="true"/>
    </output>

    <time>
        <end value="1000"/>
    </time>

    <processing>
        <default.speeddev value="0"/>
    </processing>

    <report>
        <xml-validation value="never"/>
        <duration-log.disable value="true"/>
        <no-step-log value="true"/>
    </report>

    <taxi_device>
        <device.taxi.idle-algorithm value="taxistand"/>
    </taxi_device>

    <mesoscopic>
        <mesosim value="true"/>
    </mesoscopic>

</sumoConfiguration>
-->

<tripinfos xmlns:xsi="http://www.w3.org/2001/XMLSchema-instance" xsi:noNamespaceSchemaLocation="http://sumo.dlr.de/xsd/tripinfo_file.xsd">
    <tripinfo id="taxi.0" depart="0.00" departLane="B1B0_0" departPos="0.00" departSpeed="13.89" departDelay="0.00" arrival="58.00" arrivalLane="B0B1_0" arrivalPos="100.00" arrivalSpeed="13.89" duration="58.00" routeLength="800.00" waitingTime="0.00" waitingCount="0" stopTime="0.00" timeLoss="0.00" rerouteNo="3" devices="vehroute_taxi.0 tripinfo_taxi.0 routing_taxi.0 taxi_taxi.0" vType="taxi" speedFactor="1.00" vaporized="">
        <taxi customers="0" occupiedDistance="0.00" occupiedTime="0.00"/>
    </tripinfo>
    <tripinfo id="taxi.1" depart="1.00" departLane="B1B0_0" departPos="0.00" departSpeed="12.71" departDelay="0.90" arrival="60.00" arrivalLane="B0B1_0" arrivalPos="100.00" arrivalSpeed="13.89" duration="59.00" routeLength="800.00" waitingTime="0.00" waitingCount="0" stopTime="0.00" timeLoss="0.67" rerouteNo="3" devices="vehroute_taxi.1 tripinfo_taxi.1 routing_taxi.1 taxi_taxi.1" vType="taxi" speedFactor="1.00" vaporized="">
        <taxi customers="0" occupiedDistance="0.00" occupiedTime="0.00"/>
    </tripinfo>
    <tripinfo id="taxi.2" depart="1.00" departLane="B1B0_0" departPos="0.00" departSpeed="10.49" departDelay="0.80" arrival="61.00" arrivalLane="B0B1_0" arrivalPos="100.00" arrivalSpeed="13.89" duration="60.00" routeLength="800.00" waitingTime="0.00" waitingCount="0" stopTime="0.00" timeLoss="2.34" rerouteNo="3" devices="vehroute_taxi.2 tripinfo_taxi.2 routing_taxi.2 taxi_taxi.2" vType="taxi" speedFactor="1.00" vaporized="">
        <taxi customers="0" occupiedDistance="0.00" occupiedTime="0.00"/>
    </tripinfo>
    <tripinfo id="taxi.3" depart="1.00" departLane="B1B0_0" departPos="0.00" departSpeed="8.92" departDelay="0.70" arrival="63.00" arrivalLane="B0B1_0" arrivalPos="100.00" arrivalSpeed="13.89" duration="62.00" routeLength="800.00" waitingTime="0.00" waitingCount="0" stopTime="0.00" timeLoss="4.01" rerouteNo="3" devices="vehroute_taxi.3 tripinfo_taxi.3 routing_taxi.3 taxi_taxi.3" vType="taxi" speedFactor="1.00" vaporized="">
        <taxi customers="0" occupiedDistance="0.00" occupiedTime="0.00"/>
    </tripinfo>
    <tripinfo id="taxi.4" depart="1.00" departLane="B1B0_0" departPos="0.00" departSpeed="7.77" departDelay="0.60" arrival="65.00" arrivalLane="B0B1_0" arrivalPos="100.00" arrivalSpeed="13.89" duration="64.00" routeLength="800.00" waitingTime="0.00" waitingCount="0" stopTime="0.00" timeLoss="5.68" rerouteNo="3" devices="vehroute_taxi.4 tripinfo_taxi.4 routing_taxi.4 taxi_taxi.4" vType="taxi" speedFactor="1.00" vaporized="">
        <taxi customers="0" occupiedDistance="0.00" occupiedTime="0.00"/>
    </tripinfo>
    <tripinfo id="taxi.5" depart="8.00" departLane="B1B0_0" departPos="0.00" departSpeed="13.26" departDelay="7.50" arrival="66.00" arrivalLane="B0B1_0" arrivalPos="100.00" arrivalSpeed="13.89" duration="58.00" routeLength="800.00" waitingTime="0.00" waitingCount="0" stopTime="0.00" timeLoss="0.35" rerouteNo="3" devices="vehroute_taxi.5 tripinfo_taxi.5 routing_taxi.5 taxi_taxi.5" vType="taxi" speedFactor="1.00" vaporized="">
        <taxi customers="0" occupiedDistance="0.00" occupiedTime="0.00"/>
    </tripinfo>
    <tripinfo id="taxi.6" depart="9.00" departLane="B1B0_0" departPos="0.00" departSpeed="12.18" departDelay="8.40" arrival="68.00" arrivalLane="B0B1_0" arrivalPos="100.00" arrivalSpeed="13.89" duration="59.00" routeLength="800.00" waitingTime="0.00" waitingCount="0" stopTime="0.00" timeLoss="1.01" rerouteNo="3" devices="vehroute_taxi.6 tripinfo_taxi.6 routing_taxi.6 taxi_taxi.6" vType="taxi" speedFactor="1.00" vaporized="">
        <taxi customers="0" occupiedDistance="0.00" occupiedTime="0.00"/>
    </tripinfo>
    <tripinfo id="taxi.7" depart="11.00" departLane="B1B0_0" departPos="0.00" departSpeed="12.69" departDelay="10.30" arrival="70.00" arrivalLane="B0B1_0" arrivalPos="100.00" arrivalSpeed="13.89" duration="59.00" routeLength="800.00" waitingTime="0.00" waitingCount="0" stopTime="0.00" timeLoss="0.68" rerouteNo="3" devices="vehroute_taxi.7 tripinfo_taxi.7 routing_taxi.7 taxi_taxi.7" vType="taxi" speedFactor="1.00" vaporized="">
        <taxi customers="0" occupiedDistance="0.00" occupiedTime="0.00"/>
    </tripinfo>
    <tripinfo id="taxi.8" depart="13.00" departLane="B1B0_0" departPos="0.00" departSpeed="13.24" departDelay="12.20" arrival="71.00" arrivalLane="B0B1_0" arrivalPos="100.00" arrivalSpeed="13.89" duration="58.00" routeLength="800.00" waitingTime="0.00" waitingCount="0" stopTime="0.00" timeLoss="0.35" rerouteNo="3" devices="vehroute_taxi.8 tripinfo_taxi.8 routing_taxi.8 taxi_taxi.8" vType="taxi" speedFactor="1.00" vaporized="">
        <taxi customers="0" occupiedDistance="0.00" occupiedTime="0.00"/>
    </tripinfo>
    <tripinfo id="taxi.9" depart="14.00" departLane="B1B0_0" departPos="0.00" departSpeed="12.17" departDelay="13.10" arrival="73.00" arrivalLane="B0B1_0" arrivalPos="100.00" arrivalSpeed="13.89" duration="59.00" routeLength="800.00" waitingTime="0.00" waitingCount="0" stopTime="0.00" timeLoss="1.02" rerouteNo="3" devices="vehroute_taxi.9 tripinfo_taxi.9 routing_taxi.9 taxi_taxi.9" vType="taxi" speedFactor="1.00" vaporized="">
        <taxi customers="0" occupiedDistance="0.00" occupiedTime="0.00"/>
    </tripinfo>
    <personinfo id="p.0" depart="100.00" type="DEFAULT_PEDTYPE" speedFactor="1.00" duration="-1" waitingTime="900.00" timeLoss="-1" traveltime="-1">
        <ride waitingTime="900.00" vehicle="NULL" depart="-1" arrival="-1" arrivalPos="-1" duration="-1" routeLength="-1" timeLoss="-1"/>
    </personinfo>
    <personinfo id="p.1" depart="300.00" type="DEFAULT_PEDTYPE" speedFactor="1.00" duration="-1" waitingTime="700.00" timeLoss="-1" traveltime="-1">
        <ride waitingTime="700.00" vehicle="NULL" depart="-1" arrival="-1" arrivalPos="-1" duration="-1" routeLength="-1" timeLoss="-1"/>
    </personinfo>
    <personinfo id="p.2" depart="500.00" type="DEFAULT_PEDTYPE" speedFactor="1.00" duration="-1" waitingTime="500.00" timeLoss="-1" traveltime="-1">
        <ride waitingTime="500.00" vehicle="NULL" depart="-1" arrival="-1" arrivalPos="-1" duration="-1" routeLength="-1" timeLoss="-1"/>
    </personinfo>
    <personinfo id="p.3" depart="700.00" type="DEFAULT_PEDTYPE" speedFactor="1.00" duration="-1" waitingTime="300.00" timeLoss="-1" traveltime="-1">
        <ride waitingTime="300.00" vehicle="NULL" depart="-1" arrival="-1" arrivalPos="-1" duration="-1" routeLength="-1" timeLoss="-1"/>
    </personinfo>
    <personinfo id="p.4" depart="900.00" type="DEFAULT_PEDTYPE" speedFactor="1.00" duration="-1" waitingTime="100.00" timeLoss="-1" traveltime="-1">
        <ride waitingTime="100.00" vehicle="NULL" depart="-1" arrival="-1" arrivalPos="-1" duration="-1" routeLength="-1" timeLoss="-1"/>
    </personinfo>
    <personinfo id="p.5" depart="-1" type="DEFAULT_PEDTYPE" speedFactor="1.00" duration="-1" waitingTime="-1" timeLoss="-1" traveltime="-1">
        <ride waitingTime="-1" vehicle="NULL" depart="-1" arrival="-1" arrivalPos="-1" duration="-1" routeLength="-1" timeLoss="-1"/>
    </personinfo>
    <personinfo id="p.6" depart="-1" type="DEFAULT_PEDTYPE" speedFactor="1.00" duration="-1" waitingTime="-1" timeLoss="-1" traveltime="-1">
        <ride waitingTime="-1" vehicle="NULL" depart="-1" arrival="-1" arrivalPos="-1" duration="-1" routeLength="-1" timeLoss="-1"/>
    </personinfo>
    <personinfo id="p.7" depart="-1" type="DEFAULT_PEDTYPE" speedFactor="1.00" duration="-1" waitingTime="-1" timeLoss="-1" traveltime="-1">
        <ride waitingTime="-1" vehicle="NULL" depart="-1" arrival="-1" arrivalPos="-1" duration="-1" routeLength="-1" timeLoss="-1"/>
    </personinfo>
    <personinfo id="p.8" depart="-1" type="DEFAULT_PEDTYPE" speedFactor="1.00" duration="-1" waitingTime="-1" timeLoss="-1" traveltime="-1">
        <ride waitingTime="-1" vehicle="NULL" depart="-1" arrival="-1" arrivalPos="-1" duration="-1" routeLength="-1" timeLoss="-1"/>
    </personinfo>
    <personinfo id="p.9" depart="-1" type="DEFAULT_PEDTYPE" speedFactor="1.00" duration="-1" waitingTime="-1" timeLoss="-1" traveltime="-1">
        <ride waitingTime="-1" vehicle="NULL" depart="-1" arrival="-1" arrivalPos="-1" duration="-1" routeLength="-1" timeLoss="-1"/>
    </personinfo>
</tripinfos>
