<?xml version="1.0" encoding="UTF-8"?>

<!-- generated on 2026-02-17T08:42:49.853428+01:00 by Eclipse SUMO sumo v1_26_0+0239-c56d2baccde
This data file and the accompanying materials
are made available under the terms of the Eclipse Public License v2.0
which accompanies this distribution, and is available at
http://www.eclipse.org/legal/epl-v20.html
This file may also be made available under the following Secondary
Licenses when the conditions for such availability set forth in the Eclipse
Public License 2.0 are satisfied: GNU General Public License, version 2
or later which is available at
https://www.gnu.org/licenses/old-licenses/gpl-2.0-standalone.html
SPDX-License-Identifier: EPL-2.0 OR GPL-2.0-or-later
<sumoConfiguration xmlns:xsi="http://www.w3.org/2001/XMLSchema-instance" xsi:noNamespaceSchemaLocation="http://sumo.dlr.de/xsd/sumoConfiguration.xsd">

    <input>
        <net-file value="net.net.xml"/>
        <route-files value="input_routes.rou.xml"/>
        <additional-files value="input_additional.add.xml"/>
    </input>

    <output>
        <write-license value="true"/>
        <tripinfo-output value="tripinfos.xml"/>
        <tripinfo-output.write-unfinished value="true"/>
        <vehroute-output value="vehroutes.xml"/>
        <vehroute-output.write-unfinished value="true"/>
    </output>

    <time>
        <end value="1000"/>
    </time>

    <processing>
        <default.speeddev value="0"/>
    </processing>

    <report>
        <xml-validation value="never"/>
        <duration-log.disable value="true"/>
        <no-step-log value="true"/>
    </report>

    <taxi_device>
        <device.taxi.idle-algorithm value="taxistand"/>
    </taxi_device>

    <mesoscopic>
        <mesosim value="true"/>
    </mesoscopic>

</sumoConfiguration>
-->

<routes xmlns:xsi="http://www.w3.org/2001/XMLSchema-instance" xsi:noNamespaceSchemaLocation="http://sumo.dlr.de/xsd/routes_file.xsd">
    <vehicle id="taxi.0" type="taxi" depart="0.00" arrival="58.00">
        <routeDistribution>
            <route replacedOnEdge="B1B0" reason="taxi:taxistand" replacedAtTime="0.00" probability="0" edges="B1B0 B0B1"/>
            <route replacedOnEdge="B1B0" reason="rr0:parkingAreaReroute" replacedAtTime="0.00" probability="0" edges="B1B0 B0C0 C0C1 C1C0 C0B0 B0B1"/>
            <route replacedOnEdge="B0C0" replacedOnIndex="1" reason="rr0:parkingAreaReroute" replacedAtTime="8.00" probability="0" edges="B1B0 B0C0 C0B0 B0B1"/>
            <route edges="B1B0 B0C0 C0B0 B0B1"/>
        </routeDistribution>
    </vehicle>

    <vehicle id="taxi.1" type="taxi" depart="1.00" arrival="60.00">
        <routeDistribution>
            <route replacedOnEdge="B1B0" reason="taxi:taxistand" replacedAtTime="1.00" probability="0" edges="B1B0 B0B1"/>
            <route replacedOnEdge="B1B0" reason="rr0:parkingAreaReroute" replacedAtTime="1.00" probability="0" edges="B1B0 B0C0 C0C1 C1C0 C0B0 B0B1"/>
            <route replacedOnEdge="B0C0" replacedOnIndex="1" reason="rr0:parkingAreaReroute" replacedAtTime="9.00" probability="0" edges="B1B0 B0C0 C0B0 B0B1"/>
            <route edges="B1B0 B0C0 C0B0 B0B1"/>
        </routeDistribution>
    </vehicle>

    <vehicle id="taxi.2" type="taxi" depart="1.00" arrival="61.00">
        <routeDistribution>
            <route replacedOnEdge="B1B0" reason="taxi:taxistand" replacedAtTime="1.00" probability="0" edges="B1B0 B0B1"/>
            <route replacedOnEdge="B1B0" reason="rr0:parkingAreaReroute" replacedAtTime="1.00" probability="0" edges="B1B0 B0C0 C0C1 C1C0 C0B0 B0B1"/>
            <route replacedOnEdge="B0C0" replacedOnIndex="1" reason="rr0:parkingAreaReroute" replacedAtTime="11.00" probability="0" edges="B1B0 B0C0 C0B0 B0B1"/>
            <route edges="B1B0 B0C0 C0B0 B0B1"/>
        </routeDistribution>
    </vehicle>

    <vehicle id="taxi.3" type="taxi" depart="1.00" arrival="63.00">
        <routeDistribution>
            <route replacedOnEdge="B1B0" reason="taxi:taxistand" replacedAtTime="1.00" probability="0" edges="B1B0 B0B1"/>
            <route replacedOnEdge="B1B0" reason="rr0:parkingAreaReroute" replacedAtTime="1.00" probability="0" edges="B1B0 B0C0 C0C1 C1C0 C0B0 B0B1"/>
            <route replacedOnEdge="B0C0" replacedOnIndex="1" reason="rr0:parkingAreaReroute" replacedAtTime="13.00" probability="0" edges="B1B0 B0C0 C0B0 B0B1"/>
            <route edges="B1B0 B0C0 C0B0 B0B1"/>
        </routeDistribution>
    </vehicle>

    <vehicle id="taxi.4" type="taxi" depart="1.00" arrival="65.00">
        <routeDistribution>
            <route replacedOnEdge="B1B0" reason="taxi:taxistand" replacedAtTime="1.00" probability="0" edges="B1B0 B0B1"/>
            <route replacedOnEdge="B1B0" reason="rr0:parkingAreaReroute" replacedAtTime="1.00" probability="0" edges="B1B0 B0C0 C0C1 C1C0 C0B0 B0B1"/>
            <route replacedOnEdge="B0C0" replacedOnIndex="1" reason="rr0:parkingAreaReroute" replacedAtTime="14.00" probability="0" edges="B1B0 B0C0 C0B0 B0B1"/>
            <route edges="B1B0 B0C0 C0B0 B0B1"/>
        </routeDistribution>
    </vehicle>

    <vehicle id="taxi.5" type="taxi" depart="8.00" arrival="66.00">
        <routeDistribution>
            <route replacedOnEdge="B1B0" reason="taxi:taxistand" replacedAtTime="8.00" probability="0" edges="B1B0 B0B1"/>
            <route replacedOnEdge="B1B0" reason="rr0:parkingAreaReroute" replacedAtTime="8.00" probability="0" edges="B1B0 B0C0 C0C1 C1C0 C0B0 B0B1"/>
            <route replacedOnEdge="B0C0" replacedOnIndex="1" reason="rr0:parkingAreaReroute" replacedAtTime="16.00" probability="0" edges="B1B0 B0C0 C0B0 B0B1"/>
            <route edges="B1B0 B0C0 C0B0 B0B1"/>
        </routeDistribution>
    </vehicle>

    <vehicle id="taxi.6" type="taxi" depart="9.00" arrival="68.00">
        <routeDistribution>
            <route replacedOnEdge="B1B0" reason="taxi:taxistand" replacedAtTime="9.00" probability="0" edges="B1B0 B0B1"/>
            <route replacedOnEdge="B1B0" reason="rr0:parkingAreaReroute" replacedAtTime="9.00" probability="0" edges="B1B0 B0C0 C0C1 C1C0 C0B0 B0B1"/>
            <route replacedOnEdge="B0C0" replacedOnIndex="1" reason="rr0:parkingAreaReroute" replacedAtTime="18.00" probability="0" edges="B1B0 B0C0 C0B0 B0B1"/>
            <route edges="B1B0 B0C0 C0B0 B0B1"/>
        </routeDistribution>
    </vehicle>

    <vehicle id="taxi.7" type="taxi" depart="11.00" arrival="70.00">
        <routeDistribution>
            <route replacedOnEdge="B1B0" reason="taxi:taxistand" replacedAtTime="11.00" probability="0" edges="B1B0 B0B1"/>
            <route replacedOnEdge="B1B0" reason="rr0:parkingAreaReroute" replacedAtTime="11.00" probability="0" edges="B1B0 B0C0 C0C1 C1C0 C0B0 B0B1"/>
            <route replacedOnEdge="B0C0" replacedOnIndex="1" reason="rr0:parkingAreaReroute" replacedAtTime="19.00" probability="0" edges="B1B0 B0C0 C0B0 B0B1"/>
            <route edges="B1B0 B0C0 C0B0 B0B1"/>
        </routeDistribution>
    </vehicle>

    <vehicle id="taxi.8" type="taxi" depart="13.00" arrival="71.00">
        <routeDistribution>
            <route replacedOnEdge="B1B0" reason="taxi:taxistand" replacedAtTime="13.00" probability="0" edges="B1B0 B0B1"/>
            <route replacedOnEdge="B1B0" reason="rr0:parkingAreaReroute" replacedAtTime="13.00" probability="0" edges="B1B0 B0C0 C0C1 C1C0 C0B0 B0B1"/>
            <route replacedOnEdge="B0C0" replacedOnIndex="1" reason="rr0:parkingAreaReroute" replacedAtTime="21.00" probability="0" edges="B1B0 B0C0 C0B0 B0B1"/>
            <route edges="B1B0 B0C0 C0B0 B0B1"/>
        </routeDistribution>
    </vehicle>

    <vehicle id="taxi.9" type="taxi" depart="14.00" arrival="73.00">
        <routeDistribution>
            <route replacedOnEdge="B1B0" reason="taxi:taxistand" replacedAtTime="14.00" probability="0" edges="B1B0 B0B1"/>
            <route replacedOnEdge="B1B0" reason="rr0:parkingAreaReroute" replacedAtTime="14.00" probability="0" edges="B1B0 B0C0 C0C1 C1C0 C0B0 B0B1"/>
            <route replacedOnEdge="B0C0" replacedOnIndex="1" reason="rr0:parkingAreaReroute" replacedAtTime="23.00" probability="0" edges="B1B0 B0C0 C0B0 B0B1"/>
            <route edges="B1B0 B0C0 C0B0 B0B1"/>
        </routeDistribution>
    </vehicle>

    <person id="p.0" depart="100.00">
        <ride from="D1E1" to="B0C0" busStop="bs_0" lines="taxi"/>
    </person>

    <person id="p.1" depart="300.00">
        <ride from="D1E1" to="B0C0" busStop="bs_0" lines="taxi"/>
    </person>

    <person id="p.2" depart="500.00">
        <ride from="D1E1" to="B0C0" busStop="bs_0" lines="taxi"/>
    </person>

    <person id="p.3" depart="700.00">
        <ride from="D1E1" to="B0C0" busStop="bs_0" lines="taxi"/>
    </person>

    <person id="p.4" depart="900.00">
        <ride from="D1E1" to="B0C0" busStop="bs_0" lines="taxi"/>
    </person>

    <person id="p.5" depart="1100.00">
        <ride from="D1E1" to="B0C0" busStop="bs_0" lines="taxi"/>
    </person>

    <person id="p.6" depart="1300.00">
        <ride from="D1E1" to="B0C0" busStop="bs_0" lines="taxi"/>
    </person>

    <person id="p.7" depart="1500.00">
        <ride from="D1E1" to="B0C0" busStop="bs_0" lines="taxi"/>
    </person>

    <person id="p.8" depart="1700.00">
        <ride from="D1E1" to="B0C0" busStop="bs_0" lines="taxi"/>
    </person>

    <person id="p.9" depart="1900.00">
        <ride from="D1E1" to="B0C0" busStop="bs_0" lines="taxi"/>
    </person>

</routes>
