<?xml version="1.0" encoding="UTF-8"?>

<!-- generated on 2026-02-11T12:43:53.333607+01:00 by Eclipse SUMO sumo v1_26_0+0154-297d2dfcc2e
This data file and the accompanying materials
are made available under the terms of the Eclipse Public License v2.0
which accompanies this distribution, and is available at
http://www.eclipse.org/legal/epl-v20.html
This file may also be made available under the following Secondary
Licenses when the conditions for such availability set forth in the Eclipse
Public License 2.0 are satisfied: GNU General Public License, version 2
or later which is available at
https://www.gnu.org/licenses/old-licenses/gpl-2.0-standalone.html
SPDX-License-Identifier: EPL-2.0 OR GPL-2.0-or-later
<sumoConfiguration xmlns:xsi="http://www.w3.org/2001/XMLSchema-instance" xsi:noNamespaceSchemaLocation="http://sumo.dlr.de/xsd/sumoConfiguration.xsd">

    <input>
        <net-file value="net.net.xml"/>
        <route-files value="input_routes.rou.xml"/>
    </input>

    <output>
        <write-license value="true"/>
        <tripinfo-output value="tripinfos.xml"/>
        <railsignal-block-output value="railsignal_blocks.xml"/>
    </output>

    <processing>
        <time-to-teleport.railsignal-deadlock value="200"/>
        <railsignal.default-classes value="tram"/>
        <default.speeddev value="0"/>
    </processing>

    <report>
        <xml-validation value="never"/>
        <duration-log.disable value="true"/>
        <no-step-log value="true"/>
    </report>

</sumoConfiguration>
-->

<tripinfos xmlns:xsi="http://www.w3.org/2001/XMLSchema-instance" xsi:noNamespaceSchemaLocation="http://sumo.dlr.de/xsd/tripinfo_file.xsd">
    <tripinfo id="v0" depart="0.00" departLane="1a_0" departPos="22.10" departSpeed="13.89" departDelay="0.00" arrival="21.00" arrivalLane="3a_0" arrivalPos="98.34" arrivalSpeed="13.89" duration="21.00" routeLength="278.00" waitingTime="0.00" waitingCount="0" stopTime="0.00" timeLoss="0.00" rerouteNo="1" devices="tripinfo_v0 routing_v0" vType="tram" speedFactor="1.00" vaporized=""/>
    <tripinfo id="v1" depart="15.00" departLane="1b_0" departPos="22.10" departSpeed="13.89" departDelay="15.00" arrival="50.00" arrivalLane="3a_0" arrivalPos="98.34" arrivalSpeed="13.89" duration="35.00" routeLength="318.90" waitingTime="0.00" waitingCount="0" stopTime="0.00" timeLoss="11.70" rerouteNo="1" devices="tripinfo_v1 routing_v1" vType="tram" speedFactor="1.00" vaporized=""/>
    <tripinfo id="v2" depart="17.00" departLane="1b_0" departPos="22.10" departSpeed="11.71" departDelay="17.00" arrival="57.00" arrivalLane="3a_0" arrivalPos="98.34" arrivalSpeed="13.89" duration="40.00" routeLength="318.90" waitingTime="0.00" waitingCount="0" stopTime="0.00" timeLoss="16.01" rerouteNo="1" devices="tripinfo_v2 routing_v2" vType="tram" speedFactor="1.00" vaporized=""/>
</tripinfos>
