<?xml version="1.0" encoding="UTF-8"?>

<!-- generated on 2026-02-16T14:11:40.699103+01:00 by Eclipse SUMO sumo v1_26_0+0231-c31a9327477
This data file and the accompanying materials
are made available under the terms of the Eclipse Public License v2.0
which accompanies this distribution, and is available at
http://www.eclipse.org/legal/epl-v20.html
This file may also be made available under the following Secondary
Licenses when the conditions for such availability set forth in the Eclipse
Public License 2.0 are satisfied: GNU General Public License, version 2
or later which is available at
https://www.gnu.org/licenses/old-licenses/gpl-2.0-standalone.html
SPDX-License-Identifier: EPL-2.0 OR GPL-2.0-or-later
<sumoConfiguration xmlns:xsi="http://www.w3.org/2001/XMLSchema-instance" xsi:noNamespaceSchemaLocation="http://sumo.dlr.de/xsd/sumoConfiguration.xsd">

    <input>
        <net-file value="net.net.xml"/>
        <route-files value="input_routes.rou.xml"/>
        <additional-files value="input_additional.add.xml"/>
    </input>

    <output>
        <write-license value="true"/>
        <tripinfo-output value="tripinfos.xml"/>
        <tripinfo-output.write-unfinished value="true"/>
        <vehroute-output value="vehroutes.xml"/>
        <vehroute-output.write-unfinished value="true"/>
    </output>

    <time>
        <end value="7200"/>
    </time>

    <processing>
        <default.speeddev value="0"/>
    </processing>

    <report>
        <xml-validation value="never"/>
        <duration-log.disable value="true"/>
        <no-step-log value="true"/>
    </report>

    <taxi_device>
        <device.taxi.idle-algorithm value="taxistand"/>
    </taxi_device>

</sumoConfiguration>
-->

<tripinfos xmlns:xsi="http://www.w3.org/2001/XMLSchema-instance" xsi:noNamespaceSchemaLocation="http://sumo.dlr.de/xsd/tripinfo_file.xsd">
    <personinfo id="p.0" depart="100.00" type="DEFAULT_PEDTYPE" speedFactor="1.00" duration="260.00" waitingTime="71.00" timeLoss="21.39" traveltime="189.00">
        <ride waitingTime="71.00" vehicle="taxi.0" depart="171.00" arrival="360.00" arrivalPos="149.49" duration="189.00" routeLength="1434.34" timeLoss="21.39"/>
    </personinfo>
    <personinfo id="p.1" depart="300.00" type="DEFAULT_PEDTYPE" speedFactor="1.00" duration="236.00" waitingTime="50.00" timeLoss="17.63" traveltime="186.00">
        <ride waitingTime="50.00" vehicle="taxi.1" depart="350.00" arrival="536.00" arrivalPos="149.99" duration="186.00" routeLength="1434.90" timeLoss="17.63"/>
    </personinfo>
    <personinfo id="p.2" depart="500.00" type="DEFAULT_PEDTYPE" speedFactor="1.00" duration="280.00" waitingTime="91.00" timeLoss="20.45" traveltime="189.00">
        <ride waitingTime="91.00" vehicle="taxi.2" depart="591.00" arrival="780.00" arrivalPos="164.47" duration="189.00" routeLength="1449.33" timeLoss="20.45"/>
    </personinfo>
    <personinfo id="p.3" depart="700.00" type="DEFAULT_PEDTYPE" speedFactor="1.00" duration="237.00" waitingTime="48.00" timeLoss="21.28" traveltime="189.00">
        <ride waitingTime="48.00" vehicle="taxi.3" depart="748.00" arrival="937.00" arrivalPos="149.46" duration="189.00" routeLength="1434.32" timeLoss="21.28"/>
    </personinfo>
    <personinfo id="p.4" depart="900.00" type="DEFAULT_PEDTYPE" speedFactor="1.00" duration="238.00" waitingTime="50.00" timeLoss="20.38" traveltime="188.00">
        <ride waitingTime="50.00" vehicle="taxi.0" depart="950.00" arrival="1138.00" arrivalPos="149.49" duration="188.00" routeLength="1434.43" timeLoss="20.38"/>
    </personinfo>
    <personinfo id="p.5" depart="1100.00" type="DEFAULT_PEDTYPE" speedFactor="1.00" duration="281.00" waitingTime="90.00" timeLoss="23.17" traveltime="191.00">
        <ride waitingTime="90.00" vehicle="taxi.1" depart="1190.00" arrival="1381.00" arrivalPos="149.98" duration="191.00" routeLength="1434.84" timeLoss="23.17"/>
    </personinfo>
    <personinfo id="p.6" depart="1300.00" type="DEFAULT_PEDTYPE" speedFactor="1.00" duration="258.00" waitingTime="70.00" timeLoss="20.00" traveltime="188.00">
        <ride waitingTime="70.00" vehicle="taxi.2" depart="1370.00" arrival="1558.00" arrivalPos="156.48" duration="188.00" routeLength="1441.35" timeLoss="20.00"/>
    </personinfo>
    <personinfo id="p.7" depart="1500.00" type="DEFAULT_PEDTYPE" speedFactor="1.00" duration="217.00" waitingTime="28.00" timeLoss="21.38" traveltime="189.00">
        <ride waitingTime="28.00" vehicle="taxi.4" depart="1528.00" arrival="1717.00" arrivalPos="148.98" duration="189.00" routeLength="1433.83" timeLoss="21.38"/>
    </personinfo>
    <personinfo id="p.8" depart="1700.00" type="DEFAULT_PEDTYPE" speedFactor="1.00" duration="277.00" waitingTime="91.00" timeLoss="17.94" traveltime="186.00">
        <ride waitingTime="91.00" vehicle="taxi.3" depart="1791.00" arrival="1977.00" arrivalPos="149.49" duration="186.00" routeLength="1434.44" timeLoss="17.94"/>
    </personinfo>
    <personinfo id="p.9" depart="1900.00" type="DEFAULT_PEDTYPE" speedFactor="1.00" duration="259.00" waitingTime="70.00" timeLoss="21.58" traveltime="189.00">
        <ride waitingTime="70.00" vehicle="taxi.0" depart="1970.00" arrival="2159.00" arrivalPos="149.99" duration="189.00" routeLength="1434.88" timeLoss="21.58"/>
    </personinfo>
    <tripinfo id="taxi.0" depart="0.00" departLane="A0B0_1" departPos="5.10" departSpeed="0.00" departDelay="0.00" arrival="-1.00" arrivalLane="" arrivalPos="-1.00" arrivalSpeed="-1.00" duration="7200.00" routeLength="6413.68" waitingTime="731.00" waitingCount="6" stopTime="5862.00" timeLoss="821.96" rerouteNo="12" devices="vehroute_taxi.0 tripinfo_taxi.0 routing_taxi.0 taxi_taxi.0 person_taxi.0" vType="taxi" speedFactor="1.00" vaporized="">
        <taxi customers="3" occupiedDistance="4303.65" occupiedTime="569.00"/>
    </tripinfo>
    <tripinfo id="taxi.1" depart="3.00" departLane="A0B0_1" departPos="5.10" departSpeed="0.00" departDelay="2.80" arrival="-1.00" arrivalLane="" arrivalPos="-1.00" arrivalSpeed="-1.00" duration="7197.00" routeLength="4445.44" waitingTime="12.00" waitingCount="3" stopTime="6758.00" timeLoss="70.98" rerouteNo="14" devices="vehroute_taxi.1 tripinfo_taxi.1 routing_taxi.1 taxi_taxi.1 person_taxi.1" vType="taxi" speedFactor="1.00" vaporized="">
        <taxi customers="2" occupiedDistance="2869.74" occupiedTime="379.00"/>
    </tripinfo>
    <tripinfo id="taxi.2" depart="6.00" departLane="A0B0_1" departPos="5.10" departSpeed="0.00" departDelay="5.60" arrival="-1.00" arrivalLane="" arrivalPos="-1.00" arrivalSpeed="-1.00" duration="7194.00" routeLength="4731.04" waitingTime="664.00" waitingCount="5" stopTime="6091.00" timeLoss="725.66" rerouteNo="14" devices="vehroute_taxi.2 tripinfo_taxi.2 routing_taxi.2 taxi_taxi.2 person_taxi.2" vType="taxi" speedFactor="1.00" vaporized="end">
        <taxi customers="2" occupiedDistance="2890.68" occupiedTime="379.00"/>
    </tripinfo>
    <tripinfo id="taxi.3" depart="9.00" departLane="A0B0_1" departPos="5.10" departSpeed="0.00" departDelay="8.40" arrival="-1.00" arrivalLane="" arrivalPos="-1.00" arrivalSpeed="-1.00" duration="7191.00" routeLength="4437.42" waitingTime="1401.00" waitingCount="10" stopTime="5348.00" timeLoss="1477.54" rerouteNo="8" devices="vehroute_taxi.3 tripinfo_taxi.3 routing_taxi.3 taxi_taxi.3 person_taxi.3" vType="taxi" speedFactor="1.00" vaporized="">
        <taxi customers="2" occupiedDistance="2868.76" occupiedTime="377.00"/>
    </tripinfo>
    <tripinfo id="taxi.4" depart="12.00" departLane="A0B0_1" departPos="5.10" departSpeed="0.00" departDelay="11.20" arrival="-1.00" arrivalLane="" arrivalPos="-1.00" arrivalSpeed="-1.00" duration="7188.00" routeLength="3919.33" waitingTime="1786.00" waitingCount="10" stopTime="5007.00" timeLoss="1862.78" rerouteNo="8" devices="vehroute_taxi.4 tripinfo_taxi.4 routing_taxi.4 taxi_taxi.4 person_taxi.4" vType="taxi" speedFactor="1.00" vaporized="end">
        <taxi customers="1" occupiedDistance="1433.83" occupiedTime="190.00"/>
    </tripinfo>
</tripinfos>
