<?xml version="1.0" encoding="UTF-8"?>

<!-- generated on 2026-02-16T11:34:34.822918+01:00 by Eclipse SUMO sumo v1_26_0+0228-f5ee370aac1
This data file and the accompanying materials
are made available under the terms of the Eclipse Public License v2.0
which accompanies this distribution, and is available at
http://www.eclipse.org/legal/epl-v20.html
This file may also be made available under the following Secondary
Licenses when the conditions for such availability set forth in the Eclipse
Public License 2.0 are satisfied: GNU General Public License, version 2
or later which is available at
https://www.gnu.org/licenses/old-licenses/gpl-2.0-standalone.html
SPDX-License-Identifier: EPL-2.0 OR GPL-2.0-or-later
<sumoConfiguration xmlns:xsi="http://www.w3.org/2001/XMLSchema-instance" xsi:noNamespaceSchemaLocation="http://sumo.dlr.de/xsd/sumoConfiguration.xsd">

    <input>
        <net-file value="net.net.xml"/>
        <route-files value="input_routes.rou.xml"/>
        <additional-files value="input_additional.add.xml"/>
    </input>

    <output>
        <write-license value="true"/>
        <tripinfo-output value="tripinfos.xml"/>
        <tripinfo-output.write-unfinished value="true"/>
        <vehroute-output value="vehroutes.xml"/>
        <vehroute-output.write-unfinished value="true"/>
    </output>

    <time>
        <end value="7200"/>
    </time>

    <processing>
        <default.speeddev value="0"/>
    </processing>

    <report>
        <xml-validation value="never"/>
        <duration-log.disable value="true"/>
        <no-step-log value="true"/>
    </report>

    <taxi_device>
        <device.taxi.idle-algorithm value="taxistand"/>
    </taxi_device>

    <mesoscopic>
        <mesosim value="true"/>
    </mesoscopic>

</sumoConfiguration>
-->

<tripinfos xmlns:xsi="http://www.w3.org/2001/XMLSchema-instance" xsi:noNamespaceSchemaLocation="http://sumo.dlr.de/xsd/tripinfo_file.xsd">
    <personinfo id="p.0" depart="100.00" type="DEFAULT_PEDTYPE" speedFactor="1.00" duration="151.00" waitingTime="55.15" timeLoss="0.00" traveltime="95.86">
        <ride waitingTime="55.15" vehicle="taxi.0" depart="155.15" arrival="251.00" arrivalPos="95.20" duration="95.86" routeLength="1323.20" timeLoss="0.00"/>
    </personinfo>
    <personinfo id="p.2" depart="500.00" type="DEFAULT_PEDTYPE" speedFactor="1.00" duration="170.00" waitingTime="75.15" timeLoss="0.00" traveltime="94.86">
        <ride waitingTime="75.15" vehicle="taxi.1" depart="575.15" arrival="670.00" arrivalPos="95.20" duration="94.86" routeLength="1323.20" timeLoss="0.00"/>
    </personinfo>
    <personinfo id="p.4" depart="900.00" type="DEFAULT_PEDTYPE" speedFactor="1.00" duration="131.00" waitingTime="36.15" timeLoss="0.00" traveltime="94.86">
        <ride waitingTime="36.15" vehicle="taxi.2" depart="936.15" arrival="1031.00" arrivalPos="95.20" duration="94.86" routeLength="1323.20" timeLoss="0.00"/>
    </personinfo>
    <personinfo id="p.6" depart="1300.00" type="DEFAULT_PEDTYPE" speedFactor="1.00" duration="151.00" waitingTime="55.15" timeLoss="0.00" traveltime="95.86">
        <ride waitingTime="55.15" vehicle="taxi.3" depart="1355.15" arrival="1451.00" arrivalPos="95.20" duration="95.86" routeLength="1323.20" timeLoss="0.00"/>
    </personinfo>
    <personinfo id="p.8" depart="1700.00" type="DEFAULT_PEDTYPE" speedFactor="1.00" duration="170.00" waitingTime="75.15" timeLoss="0.00" traveltime="94.86">
        <ride waitingTime="75.15" vehicle="taxi.4" depart="1775.15" arrival="1870.00" arrivalPos="95.20" duration="94.86" routeLength="1323.20" timeLoss="0.00"/>
    </personinfo>
    <personinfo id="p.1" depart="300.00" type="DEFAULT_PEDTYPE" speedFactor="1.00" duration="1572.00" waitingTime="1477.15" timeLoss="0.00" traveltime="94.86">
        <ride waitingTime="1477.15" vehicle="taxi.0" depart="1777.15" arrival="1872.00" arrivalPos="95.20" duration="94.86" routeLength="1323.20" timeLoss="0.00"/>
    </personinfo>
    <personinfo id="p.3" depart="700.00" type="DEFAULT_PEDTYPE" speedFactor="1.00" duration="1174.00" waitingTime="1078.15" timeLoss="0.00" traveltime="95.86">
        <ride waitingTime="1078.15" vehicle="taxi.1" depart="1778.15" arrival="1874.00" arrivalPos="95.20" duration="95.86" routeLength="1323.20" timeLoss="0.00"/>
    </personinfo>
    <personinfo id="p.5" depart="1100.00" type="DEFAULT_PEDTYPE" speedFactor="1.00" duration="775.00" waitingTime="680.15" timeLoss="0.00" traveltime="94.86">
        <ride waitingTime="680.15" vehicle="taxi.2" depart="1780.15" arrival="1875.00" arrivalPos="95.20" duration="94.86" routeLength="1323.20" timeLoss="0.00"/>
    </personinfo>
    <personinfo id="p.7" depart="1500.00" type="DEFAULT_PEDTYPE" speedFactor="1.00" duration="377.00" waitingTime="282.15" timeLoss="0.00" traveltime="94.86">
        <ride waitingTime="282.15" vehicle="taxi.3" depart="1782.15" arrival="1877.00" arrivalPos="95.20" duration="94.86" routeLength="1323.20" timeLoss="0.00"/>
    </personinfo>
    <tripinfo id="taxi.4" depart="1.00" departLane="A0B0_1" departPos="0.00" departSpeed="7.62" departDelay="0.20" arrival="1944.00" arrivalLane="B0C0_1" arrivalPos="285.60" arrivalSpeed="13.89" duration="1943.00" routeLength="2458.00" waitingTime="0.00" waitingCount="0" stopTime="62.00" timeLoss="1765.68" rerouteNo="4" devices="vehroute_taxi.4 tripinfo_taxi.4 routing_taxi.4 taxi_taxi.4 person_taxi.4" vType="taxi" speedFactor="1.00" vaporized="">
        <taxi customers="1" occupiedDistance="1323.20" occupiedTime="97.27"/>
    </tripinfo>
    <tripinfo id="taxi.1" depart="1.00" departLane="A0B0_1" departPos="0.00" departSpeed="12.66" departDelay="0.80" arrival="1947.00" arrivalLane="B0C0_1" arrivalPos="285.60" arrivalSpeed="13.89" duration="1946.00" routeLength="4342.80" waitingTime="0.00" waitingCount="0" stopTime="123.00" timeLoss="1633.32" rerouteNo="7" devices="vehroute_taxi.1 tripinfo_taxi.1 routing_taxi.1 taxi_taxi.1 person_taxi.1" vType="taxi" speedFactor="1.00" vaporized="">
        <taxi customers="2" occupiedDistance="2646.40" occupiedTime="194.53"/>
    </tripinfo>
    <tripinfo id="taxi.2" depart="1.00" departLane="A0B0_1" departPos="0.00" departSpeed="10.38" departDelay="0.60" arrival="1949.00" arrivalLane="B0C0_1" arrivalPos="285.60" arrivalSpeed="13.89" duration="1948.00" routeLength="4342.80" waitingTime="0.00" waitingCount="0" stopTime="123.00" timeLoss="1634.99" rerouteNo="7" devices="vehroute_taxi.2 tripinfo_taxi.2 routing_taxi.2 taxi_taxi.2 person_taxi.2" vType="taxi" speedFactor="1.00" vaporized="">
        <taxi customers="2" occupiedDistance="2646.40" occupiedTime="194.53"/>
    </tripinfo>
    <tripinfo id="taxi.3" depart="1.00" departLane="A0B0_1" departPos="0.00" departSpeed="8.79" departDelay="0.40" arrival="1951.00" arrivalLane="B0C0_1" arrivalPos="285.60" arrivalSpeed="13.89" duration="1950.00" routeLength="4342.80" waitingTime="0.00" waitingCount="0" stopTime="123.00" timeLoss="1636.65" rerouteNo="7" devices="vehroute_taxi.3 tripinfo_taxi.3 routing_taxi.3 taxi_taxi.3 person_taxi.3" vType="taxi" speedFactor="1.00" vaporized="">
        <taxi customers="2" occupiedDistance="2646.40" occupiedTime="194.53"/>
    </tripinfo>
    <personinfo id="p.9" depart="1900.00" type="DEFAULT_PEDTYPE" speedFactor="1.00" duration="169.00" waitingTime="73.15" timeLoss="0.00" traveltime="95.86">
        <ride waitingTime="73.15" vehicle="taxi.0" depart="1973.15" arrival="2069.00" arrivalPos="95.20" duration="95.86" routeLength="1323.20" timeLoss="0.00"/>
    </personinfo>
    <tripinfo id="taxi.0" depart="0.00" departLane="A0B0_1" departPos="0.00" departSpeed="13.89" departDelay="0.00" arrival="2143.00" arrivalLane="B0C0_1" arrivalPos="285.60" arrivalSpeed="13.89" duration="2143.00" routeLength="6227.60" waitingTime="0.00" waitingCount="0" stopTime="184.00" timeLoss="1693.65" rerouteNo="10" devices="vehroute_taxi.0 tripinfo_taxi.0 routing_taxi.0 taxi_taxi.0 person_taxi.0" vType="taxi" speedFactor="1.00" vaporized="">
        <taxi customers="3" occupiedDistance="3969.60" occupiedTime="291.80"/>
    </tripinfo>
</tripinfos>
