<?xml version="1.0" encoding="UTF-8"?>

<!-- generated on 2026-02-16T11:02:55.888420+01:00 by Eclipse SUMO sumo v1_26_0+0227-cd4ae2d810d
This data file and the accompanying materials
are made available under the terms of the Eclipse Public License v2.0
which accompanies this distribution, and is available at
http://www.eclipse.org/legal/epl-v20.html
This file may also be made available under the following Secondary
Licenses when the conditions for such availability set forth in the Eclipse
Public License 2.0 are satisfied: GNU General Public License, version 2
or later which is available at
https://www.gnu.org/licenses/old-licenses/gpl-2.0-standalone.html
SPDX-License-Identifier: EPL-2.0 OR GPL-2.0-or-later
<sumoConfiguration xmlns:xsi="http://www.w3.org/2001/XMLSchema-instance" xsi:noNamespaceSchemaLocation="http://sumo.dlr.de/xsd/sumoConfiguration.xsd">

    <input>
        <net-file value="net.net.xml"/>
        <route-files value="input_routes.rou.xml"/>
        <additional-files value="input_additional.add.xml"/>
    </input>

    <output>
        <write-license value="true"/>
        <tripinfo-output value="tripinfos.xml"/>
        <tripinfo-output.write-unfinished value="true"/>
        <vehroute-output value="vehroutes.xml"/>
        <vehroute-output.write-unfinished value="true"/>
    </output>

    <time>
        <end value="7200"/>
    </time>

    <processing>
        <default.speeddev value="0"/>
    </processing>

    <report>
        <xml-validation value="never"/>
        <duration-log.disable value="true"/>
        <no-step-log value="true"/>
    </report>

    <taxi_device>
        <device.taxi.idle-algorithm value="taxistand"/>
    </taxi_device>

</sumoConfiguration>
-->

<routes xmlns:xsi="http://www.w3.org/2001/XMLSchema-instance" xsi:noNamespaceSchemaLocation="http://sumo.dlr.de/xsd/routes_file.xsd">
    <person id="p.0" depart="100.00" arrival="610.00">
        <ride from="D1E1" to="B0C0" busStop="bs_0" lines="taxi"/>
    </person>

    <person id="p.1" depart="300.00" arrival="612.00">
        <ride from="D1E1" to="B0C0" busStop="bs_0" lines="taxi"/>
    </person>

    <person id="p.2" depart="500.00" arrival="1205.00">
        <ride from="D1E1" to="B0C0" busStop="bs_0" lines="taxi"/>
    </person>

    <person id="p.3" depart="700.00" arrival="1569.00">
        <ride from="D1E1" to="B0C0" busStop="bs_0" lines="taxi"/>
    </person>

    <person id="p.4" depart="900.00" arrival="1570.00">
        <ride from="D1E1" to="B0C0" busStop="bs_0" lines="taxi"/>
    </person>

    <person id="p.5" depart="1100.00" arrival="1571.00">
        <ride from="D1E1" to="B0C0" busStop="bs_0" lines="taxi"/>
    </person>

    <person id="p.6" depart="1300.00" arrival="1573.00">
        <ride from="D1E1" to="B0C0" busStop="bs_0" lines="taxi"/>
    </person>

    <vehicle id="taxi.0" type="taxi" depart="0.00">
        <routeDistribution>
            <route replacedOnEdge="A0B0" reason="taxi:taxistand" replacedAtTime="0.00" probability="0" edges="A0B0 B0C0"/>
            <route replacedOnEdge="B0C0" replacedOnIndex="1" reason="taxi:prepare_dispatch" replacedAtTime="120.00" probability="0" edges="A0B0 B0C0"/>
            <route replacedOnEdge="B0C0" replacedOnIndex="1" reason="taxi:dispatch" replacedAtTime="120.00" probability="0" edges="A0B0 B0C0 D1E1 B0C0"/>
            <route replacedOnEdge="B0C0" replacedOnIndex="9" reason="taxi:taxistand" replacedAtTime="610.00" probability="0" edges="A0B0 B0C0 C0D0 D0D1 D1E1 E1D1 D1C1 C1B1 B1B0 B0C0"/>
            <route replacedOnEdge="B0C0" replacedOnIndex="9" reason="taxi:prepare_dispatch" replacedAtTime="900.00" probability="0" edges="A0B0 B0C0 C0D0 D0D1 D1E1 E1D1 D1C1 C1B1 B1B0 B0C0"/>
            <route replacedOnEdge="B0C0" replacedOnIndex="9" reason="taxi:dispatch" replacedAtTime="900.00" probability="0" edges="A0B0 B0C0 C0D0 D0D1 D1E1 E1D1 D1C1 C1B1 B1B0 B0C0 D1E1 B0C0"/>
            <route replacedOnEdge="B0C0" replacedOnIndex="17" reason="taxi:taxistand" replacedAtTime="1570.00" probability="0" edges="A0B0 B0C0 C0D0 D0D1 D1E1 E1D1 D1C1 C1B1 B1B0 B0C0 C0D0 D0D1 D1E1 E1D1 D1C1 C1B1 B1B0 B0C0"/>
            <route replacedOnEdge="B0C0" replacedOnIndex="17" reason="taxi:taxistand" replacedAtTime="1741.00" probability="0" edges="A0B0 B0C0 C0D0 D0D1 D1E1 E1D1 D1C1 C1B1 B1B0 B0C0 C0D0 D0D1 D1E1 E1D1 D1C1 C1B1 B1B0 B0C0"/>
            <route replacedOnEdge="B0C0" replacedOnIndex="17" reason="rr0:parkingAreaReroute" replacedAtTime="1741.00" probability="0" edges="A0B0 B0C0 C0D0 D0D1 D1E1 E1D1 D1C1 C1B1 B1B0 B0C0 C0D0 D0D1 D1E1 E1D1 D1C1 C1B1 B1B0 B0C0"/>
            <route replacedOnEdge="B0C0" replacedOnIndex="17" reason="taxi:prepare_dispatch" replacedAtTime="1920.00" probability="0" edges="A0B0 B0C0 C0D0 D0D1 D1E1 E1D1 D1C1 C1B1 B1B0 B0C0 C0D0 D0D1 D1E1 E1D1 D1C1 C1B1 B1B0 B0C0"/>
            <route replacedOnEdge="B0C0" replacedOnIndex="17" reason="taxi:dispatch" replacedAtTime="1920.00" probability="0" edges="A0B0 B0C0 C0D0 D0D1 D1E1 E1D1 D1C1 C1B1 B1B0 B0C0 C0D0 D0D1 D1E1 E1D1 D1C1 C1B1 B1B0 B0C0 D1E1 B0C0"/>
            <route edges="A0B0 B0C0 C0D0 D0D1 D1E1 E1D1 D1C1 C1B1 B1B0 B0C0 C0D0 D0D1 D1E1 E1D1 D1C1 C1B1 B1B0 B0C0 C0D0 D0D1 D1E1 E1D1 D1C1 C1B1 B1B0 B0C0"/>
        </routeDistribution>
        <stop parkingArea="pa_0" actType="idling"/>
        <stop lane="D1E1_1" permitted="p.0" actType="pickup p.0 (0)"/>
        <stop busStop="bs_0" actType="dropOff p.0 (0)"/>
        <stop parkingArea="pa_0" actType="idling"/>
        <stop lane="D1E1_1" permitted="p.4" actType="pickup p.4 (4)"/>
        <stop busStop="bs_0" actType="dropOff p.4 (4)"/>
        <stop parkingArea="pa_0" actType="idling"/>
        <stop parkingArea="pa_0" actType="idling"/>
        <stop lane="D1E1_1" permitted="p.9" actType="pickup p.9 (9)"/>
    </vehicle>

    <vehicle id="taxi.1" type="taxi" depart="3.00">
        <routeDistribution>
            <route replacedOnEdge="A0B0" reason="taxi:taxistand" replacedAtTime="3.00" probability="0" edges="A0B0 B0C0"/>
            <route replacedOnEdge="B0C0" replacedOnIndex="1" reason="taxi:taxistand" replacedAtTime="121.00" probability="0" edges="A0B0 B0C0"/>
            <route replacedOnEdge="B0C0" replacedOnIndex="1" reason="rr0:parkingAreaReroute" replacedAtTime="121.00" probability="0" edges="A0B0 B0C0"/>
            <route replacedOnEdge="B0C0" replacedOnIndex="1" reason="taxi:prepare_dispatch" replacedAtTime="300.00" probability="0" edges="A0B0 B0C0"/>
            <route replacedOnEdge="B0C0" replacedOnIndex="1" reason="taxi:dispatch" replacedAtTime="300.00" probability="0" edges="A0B0 B0C0 D1E1 B0C0"/>
            <route replacedOnEdge="B0C0" replacedOnIndex="9" reason="taxi:taxistand" replacedAtTime="612.00" probability="0" edges="A0B0 B0C0 C0D0 D0D1 D1E1 E1D1 D1C1 C1B1 B1B0 B0C0"/>
            <route replacedOnEdge="B0C0" replacedOnIndex="9" reason="taxi:taxistand" replacedAtTime="901.00" probability="0" edges="A0B0 B0C0 C0D0 D0D1 D1E1 E1D1 D1C1 C1B1 B1B0 B0C0"/>
            <route replacedOnEdge="B0C0" replacedOnIndex="9" reason="taxi:prepare_dispatch" replacedAtTime="1140.00" probability="0" edges="A0B0 B0C0 C0D0 D0D1 D1E1 E1D1 D1C1 C1B1 B1B0 B0C0"/>
            <route replacedOnEdge="B0C0" replacedOnIndex="9" reason="taxi:dispatch" replacedAtTime="1140.00" probability="0" edges="A0B0 B0C0 C0D0 D0D1 D1E1 E1D1 D1C1 C1B1 B1B0 B0C0 D1E1 B0C0"/>
            <route replacedOnEdge="B0C0" replacedOnIndex="17" reason="taxi:taxistand" replacedAtTime="1571.00" probability="0" edges="A0B0 B0C0 C0D0 D0D1 D1E1 E1D1 D1C1 C1B1 B1B0 B0C0 C0D0 D0D1 D1E1 E1D1 D1C1 C1B1 B1B0 B0C0"/>
            <route replacedOnEdge="B0C0" replacedOnIndex="17" reason="taxi:taxistand" replacedAtTime="1741.00" probability="0" edges="A0B0 B0C0 C0D0 D0D1 D1E1 E1D1 D1C1 C1B1 B1B0 B0C0 C0D0 D0D1 D1E1 E1D1 D1C1 C1B1 B1B0 B0C0"/>
            <route replacedOnEdge="B0C0" replacedOnIndex="17" reason="rr0:parkingAreaReroute" replacedAtTime="1741.00" probability="0" edges="A0B0 B0C0 C0D0 D0D1 D1E1 E1D1 D1C1 C1B1 B1B0 B0C0 C0D0 D0D1 D1E1 E1D1 D1C1 C1B1 B1B0 B0C0"/>
            <route replacedOnEdge="B0C0" replacedOnIndex="17" reason="taxi:taxistand" replacedAtTime="1921.00" probability="0" edges="A0B0 B0C0 C0D0 D0D1 D1E1 E1D1 D1C1 C1B1 B1B0 B0C0 C0D0 D0D1 D1E1 E1D1 D1C1 C1B1 B1B0 B0C0"/>
            <route edges="A0B0 B0C0 C0D0 D0D1 D1E1 E1D1 D1C1 C1B1 B1B0 B0C0 C0D0 D0D1 D1E1 E1D1 D1C1 C1B1 B1B0 B0C0"/>
        </routeDistribution>
        <stop parkingArea="pa_0" actType="idling"/>
        <stop parkingArea="pa_0" actType="idling"/>
        <stop lane="D1E1_1" permitted="p.1" actType="pickup p.1 (1)"/>
        <stop busStop="bs_0" actType="dropOff p.1 (1)"/>
        <stop parkingArea="pa_0" actType="idling"/>
        <stop parkingArea="pa_0" actType="idling"/>
        <stop lane="D1E1_1" permitted="p.5" actType="pickup p.5 (5)"/>
        <stop busStop="bs_0" actType="dropOff p.5 (5)"/>
        <stop parkingArea="pa_0" actType="idling"/>
        <stop parkingArea="pa_0" actType="idling"/>
        <stop parkingArea="pa_0" actType="idling"/>
    </vehicle>

    <vehicle id="taxi.2" type="taxi" depart="6.00">
        <routeDistribution>
            <route replacedOnEdge="A0B0" reason="taxi:taxistand" replacedAtTime="6.00" probability="0" edges="A0B0 B0C0"/>
            <route replacedOnEdge="B0C0" replacedOnIndex="1" reason="taxi:taxistand" replacedAtTime="121.00" probability="0" edges="A0B0 B0C0"/>
            <route replacedOnEdge="B0C0" replacedOnIndex="1" reason="rr0:parkingAreaReroute" replacedAtTime="121.00" probability="0" edges="A0B0 B0C0"/>
            <route replacedOnEdge="B0C0" replacedOnIndex="1" reason="taxi:taxistand" replacedAtTime="301.00" probability="0" edges="A0B0 B0C0"/>
            <route replacedOnEdge="B0C0" replacedOnIndex="1" reason="taxi:prepare_dispatch" replacedAtTime="540.00" probability="0" edges="A0B0 B0C0"/>
            <route replacedOnEdge="B0C0" replacedOnIndex="1" reason="taxi:dispatch" replacedAtTime="540.00" probability="0" edges="A0B0 B0C0 D1E1 B0C0"/>
            <route replacedOnEdge="B0C0" replacedOnIndex="9" reason="taxi:taxistand" replacedAtTime="1205.00" probability="0" edges="A0B0 B0C0 C0D0 D0D1 D1E1 E1D1 D1C1 C1B1 B1B0 B0C0"/>
            <route replacedOnEdge="B0C0" replacedOnIndex="9" reason="taxi:prepare_dispatch" replacedAtTime="1320.00" probability="0" edges="A0B0 B0C0 C0D0 D0D1 D1E1 E1D1 D1C1 C1B1 B1B0 B0C0"/>
            <route replacedOnEdge="B0C0" replacedOnIndex="9" reason="taxi:dispatch" replacedAtTime="1320.00" probability="0" edges="A0B0 B0C0 C0D0 D0D1 D1E1 E1D1 D1C1 C1B1 B1B0 B0C0 D1E1 B0C0"/>
            <route replacedOnEdge="B0C0" replacedOnIndex="17" reason="taxi:taxistand" replacedAtTime="1573.00" probability="0" edges="A0B0 B0C0 C0D0 D0D1 D1E1 E1D1 D1C1 C1B1 B1B0 B0C0 C0D0 D0D1 D1E1 E1D1 D1C1 C1B1 B1B0 B0C0"/>
            <route replacedOnEdge="B0C0" replacedOnIndex="17" reason="rr0:parkingAreaReroute" replacedAtTime="1576.00" probability="0" edges="A0B0 B0C0 C0D0 D0D1 D1E1 E1D1 D1C1 C1B1 B1B0 B0C0 C0D0 D0D1 D1E1 E1D1 D1C1 C1B1 B1B0 B0C0"/>
            <route edges="A0B0 B0C0 C0D0 D0D1 D1E1 E1D1 D1C1 C1B1 B1B0 B0C0 C0D0 D0D1 D1E1 E1D1 D1C1 C1B1 B1B0 B0C0 C0D0 D0C0 C0B0 B0C0"/>
        </routeDistribution>
        <stop parkingArea="pa_0" actType="idling"/>
        <stop parkingArea="pa_0" actType="idling"/>
        <stop parkingArea="pa_0" actType="idling"/>
        <stop lane="D1E1_1" permitted="p.2" actType="pickup p.2 (2)"/>
        <stop busStop="bs_0" actType="dropOff p.2 (2)"/>
        <stop parkingArea="pa_0" actType="idling"/>
        <stop lane="D1E1_1" permitted="p.6" actType="pickup p.6 (6)"/>
        <stop busStop="bs_0" actType="dropOff p.6 (6)"/>
        <stop parkingArea="pa_1" actType="idling"/>
    </vehicle>

    <vehicle id="taxi.3" type="taxi" depart="9.00">
        <routeDistribution>
            <route replacedOnEdge="A0B0" reason="taxi:taxistand" replacedAtTime="9.00" probability="0" edges="A0B0 B0C0"/>
            <route replacedOnEdge="B0C0" replacedOnIndex="1" reason="rr0:parkingAreaReroute" replacedAtTime="47.00" probability="0" edges="A0B0 B0C0"/>
            <route replacedOnEdge="C0D0" replacedOnIndex="2" reason="taxi:prepare_dispatch" replacedAtTime="720.00" probability="0" edges="A0B0 B0C0 C0D0 D0C0 C0B0 B0C0"/>
            <route replacedOnEdge="C0D0" replacedOnIndex="2" reason="taxi:dispatch" replacedAtTime="720.00" probability="0" edges="A0B0 B0C0 C0D0 D1E1 B0C0"/>
            <route replacedOnEdge="B0C0" replacedOnIndex="9" reason="taxi:taxistand" replacedAtTime="1569.00" probability="0" edges="A0B0 B0C0 C0D0 D0D1 D1E1 E1D1 D1C1 C1B1 B1B0 B0C0"/>
            <route replacedOnEdge="B0C0" replacedOnIndex="9" reason="taxi:prepare_dispatch" replacedAtTime="1740.00" probability="0" edges="A0B0 B0C0 C0D0 D0D1 D1E1 E1D1 D1C1 C1B1 B1B0 B0C0"/>
            <route replacedOnEdge="B0C0" replacedOnIndex="9" reason="taxi:dispatch" replacedAtTime="1740.00" probability="0" edges="A0B0 B0C0 C0D0 D0D1 D1E1 E1D1 D1C1 C1B1 B1B0 B0C0 D1E1 B0C0"/>
            <route edges="A0B0 B0C0 C0D0 D0D1 D1E1 E1D1 D1C1 C1B1 B1B0 B0C0 C0D0 D0D1 D1E1 E1D1 D1C1 C1B1 B1B0 B0C0"/>
        </routeDistribution>
        <stop parkingArea="pa_1" actType="idling"/>
        <stop lane="D1E1_1" permitted="p.3" actType="pickup p.3 (3)"/>
        <stop busStop="bs_0" actType="dropOff p.3 (3)"/>
        <stop parkingArea="pa_0" actType="idling"/>
        <stop lane="D1E1_1" permitted="p.8" actType="pickup p.8 (8)"/>
    </vehicle>

    <vehicle id="taxi.4" type="taxi" depart="12.00">
        <routeDistribution>
            <route replacedOnEdge="A0B0" reason="taxi:taxistand" replacedAtTime="12.00" probability="0" edges="A0B0 B0C0"/>
            <route replacedOnEdge="B0C0" replacedOnIndex="1" reason="rr0:parkingAreaReroute" replacedAtTime="47.00" probability="0" edges="A0B0 B0C0"/>
            <route replacedOnEdge="C0D0" replacedOnIndex="2" reason="taxi:taxistand" replacedAtTime="721.00" probability="0" edges="A0B0 B0C0 C0D0 D0C0 C0B0 B0C0"/>
            <route replacedOnEdge="B0C0" replacedOnIndex="5" reason="taxi:prepare_dispatch" replacedAtTime="1500.00" probability="0" edges="A0B0 B0C0 C0D0 D0C0 C0B0 B0C0"/>
            <route replacedOnEdge="B0C0" replacedOnIndex="5" reason="taxi:dispatch" replacedAtTime="1500.00" probability="0" edges="A0B0 B0C0 C0D0 D0C0 C0B0 B0C0 D1E1 B0C0"/>
            <route edges="A0B0 B0C0 C0D0 D0C0 C0B0 B0C0 C0D0 D0D1 D1E1 E1D1 D1C1 C1B1 B1B0 B0C0"/>
        </routeDistribution>
        <stop parkingArea="pa_1" actType="idling"/>
        <stop parkingArea="pa_0" actType="idling"/>
        <stop lane="D1E1_1" permitted="p.7" actType="pickup p.7 (7)"/>
    </vehicle>

    <person id="p.7" depart="1500.00">
        <ride from="D1E1" to="B0C0" busStop="bs_0" lines="taxi"/>
    </person>

    <person id="p.8" depart="1700.00">
        <ride from="D1E1" to="B0C0" busStop="bs_0" lines="taxi"/>
    </person>

    <person id="p.9" depart="1900.00">
        <ride from="D1E1" to="B0C0" busStop="bs_0" lines="taxi"/>
    </person>

</routes>
