<?xml version="1.0" encoding="UTF-8"?>

<!-- generated on 2026-02-13T11:29:46.591045+01:00 by Eclipse SUMO sumo v1_26_0+0199-dadb0ce19d3
This data file and the accompanying materials
are made available under the terms of the Eclipse Public License v2.0
which accompanies this distribution, and is available at
http://www.eclipse.org/legal/epl-v20.html
This file may also be made available under the following Secondary
Licenses when the conditions for such availability set forth in the Eclipse
Public License 2.0 are satisfied: GNU General Public License, version 2
or later which is available at
https://www.gnu.org/licenses/old-licenses/gpl-2.0-standalone.html
SPDX-License-Identifier: EPL-2.0 OR GPL-2.0-or-later
<sumoConfiguration xmlns:xsi="http://www.w3.org/2001/XMLSchema-instance" xsi:noNamespaceSchemaLocation="http://sumo.dlr.de/xsd/sumoConfiguration.xsd">

    <input>
        <net-file value="net.net.xml"/>
        <route-files value="input_routes.rou.xml"/>
    </input>

    <output>
        <write-license value="true"/>
        <fcd-output value="fcd.xml"/>
    </output>

    <time>
        <step-length value="0.25"/>
    </time>

    <processing>
        <collision.mingap-factor value="0"/>
        <default.carfollowmodel value="ACC"/>
        <default.speeddev value="0"/>
    </processing>

    <report>
        <xml-validation value="never"/>
        <no-step-log value="true"/>
    </report>

    <driver_state_device>
        <device.driverstate.probability value="1"/>
        <device.driverstate.initialAwareness value="0.5"/>
    </driver_state_device>

</sumoConfiguration>
-->

<fcd-export xmlns:xsi="http://www.w3.org/2001/XMLSchema-instance" xsi:noNamespaceSchemaLocation="http://sumo.dlr.de/xsd/fcd_file.xsd">
    <timestep time="0.00">
        <vehicle id="first" x="5.10" y="0.00" angle="90.00" type="tFirst" speed="30.00" pos="5.10" lane="0_0" slope="0.00"/>
    </timestep>
    <timestep time="0.25">
        <vehicle id="first" x="12.60" y="0.00" angle="90.00" type="tFirst" speed="30.00" pos="12.60" lane="0_0" slope="0.00"/>
    </timestep>
    <timestep time="0.50">
        <vehicle id="first" x="20.10" y="0.00" angle="90.00" type="tFirst" speed="30.00" pos="20.10" lane="0_0" slope="0.00"/>
    </timestep>
    <timestep time="0.75">
        <vehicle id="first" x="27.60" y="0.00" angle="90.00" type="tFirst" speed="30.00" pos="27.60" lane="0_0" slope="0.00"/>
    </timestep>
    <timestep time="1.00">
        <vehicle id="first" x="35.10" y="0.00" angle="90.00" type="tFirst" speed="30.00" pos="35.10" lane="0_0" slope="0.00"/>
    </timestep>
    <timestep time="1.25">
        <vehicle id="first" x="42.60" y="0.00" angle="90.00" type="tFirst" speed="30.00" pos="42.60" lane="0_0" slope="0.00"/>
    </timestep>
    <timestep time="1.50">
        <vehicle id="first" x="50.10" y="0.00" angle="90.00" type="tFirst" speed="30.00" pos="50.10" lane="0_0" slope="0.00"/>
    </timestep>
    <timestep time="1.75">
        <vehicle id="first" x="57.60" y="0.00" angle="90.00" type="tFirst" speed="30.00" pos="57.60" lane="0_0" slope="0.00"/>
    </timestep>
    <timestep time="2.00">
        <vehicle id="first" x="65.10" y="0.00" angle="90.00" type="tFirst" speed="30.00" pos="65.10" lane="0_0" slope="0.00"/>
        <vehicle id="flow.0" x="5.10" y="0.00" angle="90.00" type="tFlow" speed="31.18" pos="5.10" lane="0_0" slope="0.00"/>
    </timestep>
    <timestep time="2.25">
        <vehicle id="first" x="72.60" y="0.00" angle="90.00" type="tFirst" speed="30.00" pos="72.60" lane="0_0" slope="0.00"/>
        <vehicle id="flow.0" x="12.89" y="0.00" angle="90.00" type="tFlow" speed="31.15" pos="12.89" lane="0_0" slope="0.00"/>
    </timestep>
    <timestep time="2.50">
        <vehicle id="first" x="80.10" y="0.00" angle="90.00" type="tFirst" speed="30.00" pos="80.10" lane="0_0" slope="0.00"/>
        <vehicle id="flow.0" x="20.67" y="0.00" angle="90.00" type="tFlow" speed="31.13" pos="20.67" lane="0_0" slope="0.00"/>
    </timestep>
    <timestep time="2.75">
        <vehicle id="first" x="87.60" y="0.00" angle="90.00" type="tFirst" speed="30.00" pos="87.60" lane="0_0" slope="0.00"/>
        <vehicle id="flow.0" x="28.45" y="0.00" angle="90.00" type="tFlow" speed="31.11" pos="28.45" lane="0_0" slope="0.00"/>
    </timestep>
    <timestep time="3.00">
        <vehicle id="first" x="95.10" y="0.00" angle="90.00" type="tFirst" speed="30.00" pos="95.10" lane="0_0" slope="0.00"/>
        <vehicle id="flow.0" x="36.22" y="0.00" angle="90.00" type="tFlow" speed="31.10" pos="36.22" lane="0_0" slope="0.00"/>
    </timestep>
    <timestep time="3.25">
        <vehicle id="first" x="102.60" y="0.00" angle="90.00" type="tFirst" speed="30.00" pos="102.60" lane="0_0" slope="0.00"/>
        <vehicle id="flow.0" x="43.99" y="0.00" angle="90.00" type="tFlow" speed="31.08" pos="43.99" lane="0_0" slope="0.00"/>
    </timestep>
    <timestep time="3.50">
        <vehicle id="first" x="110.10" y="0.00" angle="90.00" type="tFirst" speed="30.00" pos="110.10" lane="0_0" slope="0.00"/>
        <vehicle id="flow.0" x="51.76" y="0.00" angle="90.00" type="tFlow" speed="31.06" pos="51.76" lane="0_0" slope="0.00"/>
    </timestep>
    <timestep time="3.75">
        <vehicle id="first" x="117.60" y="0.00" angle="90.00" type="tFirst" speed="30.00" pos="117.60" lane="0_0" slope="0.00"/>
        <vehicle id="flow.0" x="59.52" y="0.00" angle="90.00" type="tFlow" speed="31.05" pos="59.52" lane="0_0" slope="0.00"/>
    </timestep>
    <timestep time="4.00">
        <vehicle id="first" x="125.10" y="0.00" angle="90.00" type="tFirst" speed="30.00" pos="125.10" lane="0_0" slope="0.00"/>
        <vehicle id="flow.0" x="67.28" y="0.00" angle="90.00" type="tFlow" speed="31.03" pos="67.28" lane="0_0" slope="0.00"/>
        <vehicle id="flow.1" x="5.10" y="0.00" angle="90.00" type="tFlow" speed="32.27" pos="5.10" lane="0_0" slope="0.00"/>
    </timestep>
    <timestep time="4.25">
        <vehicle id="first" x="132.60" y="0.00" angle="90.00" type="tFirst" speed="30.00" pos="132.60" lane="0_0" slope="0.00"/>
        <vehicle id="flow.0" x="75.04" y="0.00" angle="90.00" type="tFlow" speed="31.02" pos="75.04" lane="0_0" slope="0.00"/>
        <vehicle id="flow.1" x="13.16" y="0.00" angle="90.00" type="tFlow" speed="32.24" pos="13.16" lane="0_0" slope="0.00"/>
    </timestep>
    <timestep time="4.50">
        <vehicle id="first" x="140.10" y="0.00" angle="90.00" type="tFirst" speed="30.00" pos="140.10" lane="0_0" slope="0.00"/>
        <vehicle id="flow.0" x="82.79" y="0.00" angle="90.00" type="tFlow" speed="31.01" pos="82.79" lane="0_0" slope="0.00"/>
        <vehicle id="flow.1" x="21.22" y="0.00" angle="90.00" type="tFlow" speed="32.22" pos="21.22" lane="0_0" slope="0.00"/>
    </timestep>
    <timestep time="4.75">
        <vehicle id="first" x="147.60" y="0.00" angle="90.00" type="tFirst" speed="30.00" pos="147.60" lane="0_0" slope="0.00"/>
        <vehicle id="flow.0" x="90.54" y="0.00" angle="90.00" type="tFlow" speed="30.99" pos="90.54" lane="0_0" slope="0.00"/>
        <vehicle id="flow.1" x="29.27" y="0.00" angle="90.00" type="tFlow" speed="32.20" pos="29.27" lane="0_0" slope="0.00"/>
    </timestep>
    <timestep time="5.00">
        <vehicle id="first" x="155.10" y="0.00" angle="90.00" type="tFirst" speed="30.00" pos="155.10" lane="0_0" slope="0.00"/>
        <vehicle id="flow.0" x="98.28" y="0.00" angle="90.00" type="tFlow" speed="30.98" pos="98.28" lane="0_0" slope="0.00"/>
        <vehicle id="flow.1" x="37.31" y="0.00" angle="90.00" type="tFlow" speed="32.17" pos="37.31" lane="0_0" slope="0.00"/>
    </timestep>
    <timestep time="5.25">
        <vehicle id="first" x="162.60" y="0.00" angle="90.00" type="tFirst" speed="30.00" pos="162.60" lane="0_0" slope="0.00"/>
        <vehicle id="flow.0" x="106.02" y="0.00" angle="90.00" type="tFlow" speed="30.97" pos="106.02" lane="0_0" slope="0.00"/>
        <vehicle id="flow.1" x="45.34" y="0.00" angle="90.00" type="tFlow" speed="32.15" pos="45.34" lane="0_0" slope="0.00"/>
    </timestep>
    <timestep time="5.50">
        <vehicle id="first" x="170.10" y="0.00" angle="90.00" type="tFirst" speed="30.00" pos="170.10" lane="0_0" slope="0.00"/>
        <vehicle id="flow.0" x="113.76" y="0.00" angle="90.00" type="tFlow" speed="30.96" pos="113.76" lane="0_0" slope="0.00"/>
        <vehicle id="flow.1" x="53.38" y="0.00" angle="90.00" type="tFlow" speed="32.12" pos="53.38" lane="0_0" slope="0.00"/>
    </timestep>
    <timestep time="5.75">
        <vehicle id="first" x="177.60" y="0.00" angle="90.00" type="tFirst" speed="30.00" pos="177.60" lane="0_0" slope="0.00"/>
        <vehicle id="flow.0" x="121.50" y="0.00" angle="90.00" type="tFlow" speed="30.94" pos="121.50" lane="0_0" slope="0.00"/>
        <vehicle id="flow.1" x="61.40" y="0.00" angle="90.00" type="tFlow" speed="32.10" pos="61.40" lane="0_0" slope="0.00"/>
    </timestep>
    <timestep time="6.00">
        <vehicle id="first" x="185.10" y="0.00" angle="90.00" type="tFirst" speed="30.00" pos="185.10" lane="0_0" slope="0.00"/>
        <vehicle id="flow.0" x="129.23" y="0.00" angle="90.00" type="tFlow" speed="30.93" pos="129.23" lane="0_0" slope="0.00"/>
        <vehicle id="flow.1" x="69.42" y="0.00" angle="90.00" type="tFlow" speed="32.07" pos="69.42" lane="0_0" slope="0.00"/>
        <vehicle id="flow.2" x="5.10" y="0.00" angle="90.00" type="tFlow" speed="33.36" pos="5.10" lane="0_0" slope="0.00"/>
    </timestep>
    <timestep time="6.25">
        <vehicle id="first" x="192.60" y="0.00" angle="90.00" type="tFirst" speed="30.00" pos="192.60" lane="0_0" slope="0.00"/>
        <vehicle id="flow.0" x="136.96" y="0.00" angle="90.00" type="tFlow" speed="30.92" pos="136.96" lane="0_0" slope="0.00"/>
        <vehicle id="flow.1" x="77.43" y="0.00" angle="90.00" type="tFlow" speed="32.04" pos="77.43" lane="0_0" slope="0.00"/>
        <vehicle id="flow.2" x="13.43" y="0.00" angle="90.00" type="tFlow" speed="33.33" pos="13.43" lane="0_0" slope="0.00"/>
    </timestep>
    <timestep time="6.50">
        <vehicle id="first" x="200.10" y="0.00" angle="90.00" type="tFirst" speed="30.00" pos="200.10" lane="0_0" slope="0.00"/>
        <vehicle id="flow.0" x="144.69" y="0.00" angle="90.00" type="tFlow" speed="30.91" pos="144.69" lane="0_0" slope="0.00"/>
        <vehicle id="flow.1" x="85.43" y="0.00" angle="90.00" type="tFlow" speed="32.02" pos="85.43" lane="0_0" slope="0.00"/>
        <vehicle id="flow.2" x="21.76" y="0.00" angle="90.00" type="tFlow" speed="33.31" pos="21.76" lane="0_0" slope="0.00"/>
    </timestep>
    <timestep time="6.75">
        <vehicle id="first" x="207.60" y="0.00" angle="90.00" type="tFirst" speed="30.00" pos="207.60" lane="0_0" slope="0.00"/>
        <vehicle id="flow.0" x="152.41" y="0.00" angle="90.00" type="tFlow" speed="30.90" pos="152.41" lane="0_0" slope="0.00"/>
        <vehicle id="flow.1" x="93.43" y="0.00" angle="90.00" type="tFlow" speed="31.99" pos="93.43" lane="0_0" slope="0.00"/>
        <vehicle id="flow.2" x="30.08" y="0.00" angle="90.00" type="tFlow" speed="33.28" pos="30.08" lane="0_0" slope="0.00"/>
    </timestep>
    <timestep time="7.00">
        <vehicle id="first" x="215.10" y="0.00" angle="90.00" type="tFirst" speed="30.00" pos="215.10" lane="0_0" slope="0.00"/>
        <vehicle id="flow.0" x="160.13" y="0.00" angle="90.00" type="tFlow" speed="30.88" pos="160.13" lane="0_0" slope="0.00"/>
        <vehicle id="flow.1" x="101.42" y="0.00" angle="90.00" type="tFlow" speed="31.97" pos="101.42" lane="0_0" slope="0.00"/>
        <vehicle id="flow.2" x="38.39" y="0.00" angle="90.00" type="tFlow" speed="33.25" pos="38.39" lane="0_0" slope="0.00"/>
    </timestep>
    <timestep time="7.25">
        <vehicle id="first" x="222.60" y="0.00" angle="90.00" type="tFirst" speed="30.00" pos="222.60" lane="0_0" slope="0.00"/>
        <vehicle id="flow.0" x="167.85" y="0.00" angle="90.00" type="tFlow" speed="30.87" pos="167.85" lane="0_0" slope="0.00"/>
        <vehicle id="flow.1" x="109.41" y="0.00" angle="90.00" type="tFlow" speed="31.95" pos="109.41" lane="0_0" slope="0.00"/>
        <vehicle id="flow.2" x="46.70" y="0.00" angle="90.00" type="tFlow" speed="33.21" pos="46.70" lane="0_0" slope="0.00"/>
    </timestep>
    <timestep time="7.50">
        <vehicle id="first" x="230.10" y="0.00" angle="90.00" type="tFirst" speed="30.00" pos="230.10" lane="0_0" slope="0.00"/>
        <vehicle id="flow.0" x="175.57" y="0.00" angle="90.00" type="tFlow" speed="30.86" pos="175.57" lane="0_0" slope="0.00"/>
        <vehicle id="flow.1" x="117.39" y="0.00" angle="90.00" type="tFlow" speed="31.92" pos="117.39" lane="0_0" slope="0.00"/>
        <vehicle id="flow.2" x="54.99" y="0.00" angle="90.00" type="tFlow" speed="33.18" pos="54.99" lane="0_0" slope="0.00"/>
    </timestep>
    <timestep time="7.75">
        <vehicle id="first" x="237.60" y="0.00" angle="90.00" type="tFirst" speed="30.00" pos="237.60" lane="0_0" slope="0.00"/>
        <vehicle id="flow.0" x="183.28" y="0.00" angle="90.00" type="tFlow" speed="30.85" pos="183.28" lane="0_0" slope="0.00"/>
        <vehicle id="flow.1" x="125.36" y="0.00" angle="90.00" type="tFlow" speed="31.90" pos="125.36" lane="0_0" slope="0.00"/>
        <vehicle id="flow.2" x="63.28" y="0.00" angle="90.00" type="tFlow" speed="33.15" pos="63.28" lane="0_0" slope="0.00"/>
    </timestep>
    <timestep time="8.00">
        <vehicle id="first" x="245.10" y="0.00" angle="90.00" type="tFirst" speed="30.00" pos="245.10" lane="0_0" slope="0.00"/>
        <vehicle id="flow.0" x="190.99" y="0.00" angle="90.00" type="tFlow" speed="30.84" pos="190.99" lane="0_0" slope="0.00"/>
        <vehicle id="flow.1" x="133.33" y="0.00" angle="90.00" type="tFlow" speed="31.87" pos="133.33" lane="0_0" slope="0.00"/>
        <vehicle id="flow.2" x="71.55" y="0.00" angle="90.00" type="tFlow" speed="33.11" pos="71.55" lane="0_0" slope="0.00"/>
    </timestep>
    <timestep time="8.25">
        <vehicle id="first" x="252.60" y="0.00" angle="90.00" type="tFirst" speed="30.00" pos="252.60" lane="0_0" slope="0.00"/>
        <vehicle id="flow.0" x="198.70" y="0.00" angle="90.00" type="tFlow" speed="30.83" pos="198.70" lane="0_0" slope="0.00"/>
        <vehicle id="flow.1" x="141.29" y="0.00" angle="90.00" type="tFlow" speed="31.85" pos="141.29" lane="0_0" slope="0.00"/>
        <vehicle id="flow.2" x="79.82" y="0.00" angle="90.00" type="tFlow" speed="33.07" pos="79.82" lane="0_0" slope="0.00"/>
    </timestep>
    <timestep time="8.50">
        <vehicle id="first" x="260.10" y="0.00" angle="90.00" type="tFirst" speed="30.00" pos="260.10" lane="0_0" slope="0.00"/>
        <vehicle id="flow.0" x="206.40" y="0.00" angle="90.00" type="tFlow" speed="30.82" pos="206.40" lane="0_0" slope="0.00"/>
        <vehicle id="flow.1" x="149.25" y="0.00" angle="90.00" type="tFlow" speed="31.83" pos="149.25" lane="0_0" slope="0.00"/>
        <vehicle id="flow.2" x="88.08" y="0.00" angle="90.00" type="tFlow" speed="33.04" pos="88.08" lane="0_0" slope="0.00"/>
    </timestep>
    <timestep time="8.75">
        <vehicle id="first" x="267.60" y="0.00" angle="90.00" type="tFirst" speed="30.00" pos="267.60" lane="0_0" slope="0.00"/>
        <vehicle id="flow.0" x="214.11" y="0.00" angle="90.00" type="tFlow" speed="30.81" pos="214.11" lane="0_0" slope="0.00"/>
        <vehicle id="flow.1" x="157.20" y="0.00" angle="90.00" type="tFlow" speed="31.80" pos="157.20" lane="0_0" slope="0.00"/>
        <vehicle id="flow.2" x="96.33" y="0.00" angle="90.00" type="tFlow" speed="33.00" pos="96.33" lane="0_0" slope="0.00"/>
    </timestep>
    <timestep time="9.00">
        <vehicle id="first" x="275.10" y="0.00" angle="90.00" type="tFirst" speed="30.00" pos="275.10" lane="0_0" slope="0.00"/>
        <vehicle id="flow.0" x="221.81" y="0.00" angle="90.00" type="tFlow" speed="30.80" pos="221.81" lane="0_0" slope="0.00"/>
        <vehicle id="flow.1" x="165.15" y="0.00" angle="90.00" type="tFlow" speed="31.78" pos="165.15" lane="0_0" slope="0.00"/>
        <vehicle id="flow.2" x="104.57" y="0.00" angle="90.00" type="tFlow" speed="32.97" pos="104.57" lane="0_0" slope="0.00"/>
    </timestep>
    <timestep time="9.25">
        <vehicle id="first" x="282.60" y="0.00" angle="90.00" type="tFirst" speed="30.00" pos="282.60" lane="0_0" slope="0.00"/>
        <vehicle id="flow.0" x="229.50" y="0.00" angle="90.00" type="tFlow" speed="30.79" pos="229.50" lane="0_0" slope="0.00"/>
        <vehicle id="flow.1" x="173.09" y="0.00" angle="90.00" type="tFlow" speed="31.76" pos="173.09" lane="0_0" slope="0.00"/>
        <vehicle id="flow.2" x="112.81" y="0.00" angle="90.00" type="tFlow" speed="32.93" pos="112.81" lane="0_0" slope="0.00"/>
    </timestep>
    <timestep time="9.50">
        <vehicle id="first" x="290.10" y="0.00" angle="90.00" type="tFirst" speed="30.00" pos="290.10" lane="0_0" slope="0.00"/>
        <vehicle id="flow.0" x="237.20" y="0.00" angle="90.00" type="tFlow" speed="30.78" pos="237.20" lane="0_0" slope="0.00"/>
        <vehicle id="flow.1" x="181.02" y="0.00" angle="90.00" type="tFlow" speed="31.74" pos="181.02" lane="0_0" slope="0.00"/>
        <vehicle id="flow.2" x="121.03" y="0.00" angle="90.00" type="tFlow" speed="32.89" pos="121.03" lane="0_0" slope="0.00"/>
    </timestep>
    <timestep time="9.75">
        <vehicle id="first" x="297.60" y="0.00" angle="90.00" type="tFirst" speed="30.00" pos="297.60" lane="0_0" slope="0.00"/>
        <vehicle id="flow.0" x="244.89" y="0.00" angle="90.00" type="tFlow" speed="30.77" pos="244.89" lane="0_0" slope="0.00"/>
        <vehicle id="flow.1" x="188.95" y="0.00" angle="90.00" type="tFlow" speed="31.71" pos="188.95" lane="0_0" slope="0.00"/>
        <vehicle id="flow.2" x="129.25" y="0.00" angle="90.00" type="tFlow" speed="32.86" pos="129.25" lane="0_0" slope="0.00"/>
    </timestep>
    <timestep time="10.00">
        <vehicle id="first" x="305.10" y="0.00" angle="90.00" type="tFirst" speed="30.00" pos="305.10" lane="0_0" slope="0.00"/>
        <vehicle id="flow.0" x="252.58" y="0.00" angle="90.00" type="tFlow" speed="30.76" pos="252.58" lane="0_0" slope="0.00"/>
        <vehicle id="flow.1" x="196.87" y="0.00" angle="90.00" type="tFlow" speed="31.69" pos="196.87" lane="0_0" slope="0.00"/>
        <vehicle id="flow.2" x="137.45" y="0.00" angle="90.00" type="tFlow" speed="32.82" pos="137.45" lane="0_0" slope="0.00"/>
    </timestep>
    <timestep time="10.25">
        <vehicle id="first" x="312.60" y="0.00" angle="90.00" type="tFirst" speed="30.00" pos="312.60" lane="0_0" slope="0.00"/>
        <vehicle id="flow.0" x="260.27" y="0.00" angle="90.00" type="tFlow" speed="30.75" pos="260.27" lane="0_0" slope="0.00"/>
        <vehicle id="flow.1" x="204.79" y="0.00" angle="90.00" type="tFlow" speed="31.67" pos="204.79" lane="0_0" slope="0.00"/>
        <vehicle id="flow.2" x="145.65" y="0.00" angle="90.00" type="tFlow" speed="32.79" pos="145.65" lane="0_0" slope="0.00"/>
    </timestep>
    <timestep time="10.50">
        <vehicle id="first" x="320.10" y="0.00" angle="90.00" type="tFirst" speed="30.00" pos="320.10" lane="0_0" slope="0.00"/>
        <vehicle id="flow.0" x="267.95" y="0.00" angle="90.00" type="tFlow" speed="30.74" pos="267.95" lane="0_0" slope="0.00"/>
        <vehicle id="flow.1" x="212.70" y="0.00" angle="90.00" type="tFlow" speed="31.65" pos="212.70" lane="0_0" slope="0.00"/>
        <vehicle id="flow.2" x="153.84" y="0.00" angle="90.00" type="tFlow" speed="32.75" pos="153.84" lane="0_0" slope="0.00"/>
    </timestep>
    <timestep time="10.75">
        <vehicle id="first" x="327.60" y="0.00" angle="90.00" type="tFirst" speed="30.00" pos="327.60" lane="0_0" slope="0.00"/>
        <vehicle id="flow.0" x="275.64" y="0.00" angle="90.00" type="tFlow" speed="30.73" pos="275.64" lane="0_0" slope="0.00"/>
        <vehicle id="flow.1" x="220.61" y="0.00" angle="90.00" type="tFlow" speed="31.63" pos="220.61" lane="0_0" slope="0.00"/>
        <vehicle id="flow.2" x="162.02" y="0.00" angle="90.00" type="tFlow" speed="32.72" pos="162.02" lane="0_0" slope="0.00"/>
    </timestep>
    <timestep time="11.00">
        <vehicle id="first" x="335.10" y="0.00" angle="90.00" type="tFirst" speed="30.00" pos="335.10" lane="0_0" slope="0.00"/>
        <vehicle id="flow.0" x="283.32" y="0.00" angle="90.00" type="tFlow" speed="30.72" pos="283.32" lane="0_0" slope="0.00"/>
        <vehicle id="flow.1" x="228.51" y="0.00" angle="90.00" type="tFlow" speed="31.61" pos="228.51" lane="0_0" slope="0.00"/>
        <vehicle id="flow.2" x="170.19" y="0.00" angle="90.00" type="tFlow" speed="32.68" pos="170.19" lane="0_0" slope="0.00"/>
    </timestep>
    <timestep time="11.25">
        <vehicle id="first" x="342.60" y="0.00" angle="90.00" type="tFirst" speed="30.00" pos="342.60" lane="0_0" slope="0.00"/>
        <vehicle id="flow.0" x="291.00" y="0.00" angle="90.00" type="tFlow" speed="30.71" pos="291.00" lane="0_0" slope="0.00"/>
        <vehicle id="flow.1" x="236.41" y="0.00" angle="90.00" type="tFlow" speed="31.59" pos="236.41" lane="0_0" slope="0.00"/>
        <vehicle id="flow.2" x="178.35" y="0.00" angle="90.00" type="tFlow" speed="32.65" pos="178.35" lane="0_0" slope="0.00"/>
    </timestep>
    <timestep time="11.50">
        <vehicle id="first" x="350.10" y="0.00" angle="90.00" type="tFirst" speed="30.00" pos="350.10" lane="0_0" slope="0.00"/>
        <vehicle id="flow.0" x="298.67" y="0.00" angle="90.00" type="tFlow" speed="30.71" pos="298.67" lane="0_0" slope="0.00"/>
        <vehicle id="flow.1" x="244.30" y="0.00" angle="90.00" type="tFlow" speed="31.57" pos="244.30" lane="0_0" slope="0.00"/>
        <vehicle id="flow.2" x="186.50" y="0.00" angle="90.00" type="tFlow" speed="32.62" pos="186.50" lane="0_0" slope="0.00"/>
    </timestep>
    <timestep time="11.75">
        <vehicle id="first" x="357.60" y="0.00" angle="90.00" type="tFirst" speed="30.00" pos="357.60" lane="0_0" slope="0.00"/>
        <vehicle id="flow.0" x="306.35" y="0.00" angle="90.00" type="tFlow" speed="30.70" pos="306.35" lane="0_0" slope="0.00"/>
        <vehicle id="flow.1" x="252.19" y="0.00" angle="90.00" type="tFlow" speed="31.55" pos="252.19" lane="0_0" slope="0.00"/>
        <vehicle id="flow.2" x="194.65" y="0.00" angle="90.00" type="tFlow" speed="32.58" pos="194.65" lane="0_0" slope="0.00"/>
    </timestep>
    <timestep time="12.00">
        <vehicle id="first" x="365.10" y="0.00" angle="90.00" type="tFirst" speed="30.00" pos="365.10" lane="0_0" slope="0.00"/>
        <vehicle id="flow.0" x="314.02" y="0.00" angle="90.00" type="tFlow" speed="30.69" pos="314.02" lane="0_0" slope="0.00"/>
        <vehicle id="flow.1" x="260.07" y="0.00" angle="90.00" type="tFlow" speed="31.53" pos="260.07" lane="0_0" slope="0.00"/>
        <vehicle id="flow.2" x="202.79" y="0.00" angle="90.00" type="tFlow" speed="32.55" pos="202.79" lane="0_0" slope="0.00"/>
    </timestep>
    <timestep time="12.25">
        <vehicle id="first" x="372.60" y="0.00" angle="90.00" type="tFirst" speed="30.00" pos="372.60" lane="0_0" slope="0.00"/>
        <vehicle id="flow.0" x="321.69" y="0.00" angle="90.00" type="tFlow" speed="30.68" pos="321.69" lane="0_0" slope="0.00"/>
        <vehicle id="flow.1" x="267.95" y="0.00" angle="90.00" type="tFlow" speed="31.51" pos="267.95" lane="0_0" slope="0.00"/>
        <vehicle id="flow.2" x="210.92" y="0.00" angle="90.00" type="tFlow" speed="32.52" pos="210.92" lane="0_0" slope="0.00"/>
    </timestep>
    <timestep time="12.50">
        <vehicle id="first" x="380.10" y="0.00" angle="90.00" type="tFirst" speed="30.00" pos="380.10" lane="0_0" slope="0.00"/>
        <vehicle id="flow.0" x="329.36" y="0.00" angle="90.00" type="tFlow" speed="30.67" pos="329.36" lane="0_0" slope="0.00"/>
        <vehicle id="flow.1" x="275.82" y="0.00" angle="90.00" type="tFlow" speed="31.49" pos="275.82" lane="0_0" slope="0.00"/>
        <vehicle id="flow.2" x="219.04" y="0.00" angle="90.00" type="tFlow" speed="32.49" pos="219.04" lane="0_0" slope="0.00"/>
    </timestep>
    <timestep time="12.75">
        <vehicle id="first" x="387.60" y="0.00" angle="90.00" type="tFirst" speed="30.00" pos="387.60" lane="0_0" slope="0.00"/>
        <vehicle id="flow.0" x="337.02" y="0.00" angle="90.00" type="tFlow" speed="30.66" pos="337.02" lane="0_0" slope="0.00"/>
        <vehicle id="flow.1" x="283.69" y="0.00" angle="90.00" type="tFlow" speed="31.47" pos="283.69" lane="0_0" slope="0.00"/>
        <vehicle id="flow.2" x="227.16" y="0.00" angle="90.00" type="tFlow" speed="32.46" pos="227.16" lane="0_0" slope="0.00"/>
    </timestep>
    <timestep time="13.00">
        <vehicle id="first" x="395.10" y="0.00" angle="90.00" type="tFirst" speed="30.00" pos="395.10" lane="0_0" slope="0.00"/>
        <vehicle id="flow.0" x="344.69" y="0.00" angle="90.00" type="tFlow" speed="30.65" pos="344.69" lane="0_0" slope="0.00"/>
        <vehicle id="flow.1" x="291.55" y="0.00" angle="90.00" type="tFlow" speed="31.45" pos="291.55" lane="0_0" slope="0.00"/>
        <vehicle id="flow.2" x="235.26" y="0.00" angle="90.00" type="tFlow" speed="32.43" pos="235.26" lane="0_0" slope="0.00"/>
    </timestep>
    <timestep time="13.25">
        <vehicle id="first" x="402.60" y="0.00" angle="90.00" type="tFirst" speed="30.00" pos="402.60" lane="0_0" slope="0.00"/>
        <vehicle id="flow.0" x="352.35" y="0.00" angle="90.00" type="tFlow" speed="30.65" pos="352.35" lane="0_0" slope="0.00"/>
        <vehicle id="flow.1" x="299.41" y="0.00" angle="90.00" type="tFlow" speed="31.44" pos="299.41" lane="0_0" slope="0.00"/>
        <vehicle id="flow.2" x="243.36" y="0.00" angle="90.00" type="tFlow" speed="32.40" pos="243.36" lane="0_0" slope="0.00"/>
    </timestep>
    <timestep time="13.50">
        <vehicle id="first" x="410.10" y="0.00" angle="90.00" type="tFirst" speed="30.00" pos="410.10" lane="0_0" slope="0.00"/>
        <vehicle id="flow.0" x="360.01" y="0.00" angle="90.00" type="tFlow" speed="30.64" pos="360.01" lane="0_0" slope="0.00"/>
        <vehicle id="flow.1" x="307.27" y="0.00" angle="90.00" type="tFlow" speed="31.42" pos="307.27" lane="0_0" slope="0.00"/>
        <vehicle id="flow.2" x="251.45" y="0.00" angle="90.00" type="tFlow" speed="32.36" pos="251.45" lane="0_0" slope="0.00"/>
    </timestep>
    <timestep time="13.75">
        <vehicle id="first" x="417.60" y="0.00" angle="90.00" type="tFirst" speed="30.00" pos="417.60" lane="0_0" slope="0.00"/>
        <vehicle id="flow.0" x="367.66" y="0.00" angle="90.00" type="tFlow" speed="30.63" pos="367.66" lane="0_0" slope="0.00"/>
        <vehicle id="flow.1" x="315.12" y="0.00" angle="90.00" type="tFlow" speed="31.40" pos="315.12" lane="0_0" slope="0.00"/>
        <vehicle id="flow.2" x="259.54" y="0.00" angle="90.00" type="tFlow" speed="32.33" pos="259.54" lane="0_0" slope="0.00"/>
    </timestep>
    <timestep time="14.00">
        <vehicle id="first" x="425.10" y="0.00" angle="90.00" type="tFirst" speed="30.00" pos="425.10" lane="0_0" slope="0.00"/>
        <vehicle id="flow.0" x="375.32" y="0.00" angle="90.00" type="tFlow" speed="30.62" pos="375.32" lane="0_0" slope="0.00"/>
        <vehicle id="flow.1" x="322.96" y="0.00" angle="90.00" type="tFlow" speed="31.38" pos="322.96" lane="0_0" slope="0.00"/>
        <vehicle id="flow.2" x="267.61" y="0.00" angle="90.00" type="tFlow" speed="32.31" pos="267.61" lane="0_0" slope="0.00"/>
    </timestep>
    <timestep time="14.25">
        <vehicle id="first" x="432.60" y="0.00" angle="90.00" type="tFirst" speed="30.00" pos="432.60" lane="0_0" slope="0.00"/>
        <vehicle id="flow.0" x="382.97" y="0.00" angle="90.00" type="tFlow" speed="30.61" pos="382.97" lane="0_0" slope="0.00"/>
        <vehicle id="flow.1" x="330.80" y="0.00" angle="90.00" type="tFlow" speed="31.37" pos="330.80" lane="0_0" slope="0.00"/>
        <vehicle id="flow.2" x="275.68" y="0.00" angle="90.00" type="tFlow" speed="32.28" pos="275.68" lane="0_0" slope="0.00"/>
    </timestep>
    <timestep time="14.50">
        <vehicle id="first" x="440.10" y="0.00" angle="90.00" type="tFirst" speed="30.00" pos="440.10" lane="0_0" slope="0.00"/>
        <vehicle id="flow.0" x="390.62" y="0.00" angle="90.00" type="tFlow" speed="30.61" pos="390.62" lane="0_0" slope="0.00"/>
        <vehicle id="flow.1" x="338.64" y="0.00" angle="90.00" type="tFlow" speed="31.35" pos="338.64" lane="0_0" slope="0.00"/>
        <vehicle id="flow.2" x="283.74" y="0.00" angle="90.00" type="tFlow" speed="32.25" pos="283.74" lane="0_0" slope="0.00"/>
    </timestep>
    <timestep time="14.75">
        <vehicle id="first" x="447.60" y="0.00" angle="90.00" type="tFirst" speed="30.00" pos="447.60" lane="0_0" slope="0.00"/>
        <vehicle id="flow.0" x="398.27" y="0.00" angle="90.00" type="tFlow" speed="30.60" pos="398.27" lane="0_0" slope="0.00"/>
        <vehicle id="flow.1" x="346.47" y="0.00" angle="90.00" type="tFlow" speed="31.33" pos="346.47" lane="0_0" slope="0.00"/>
        <vehicle id="flow.2" x="291.80" y="0.00" angle="90.00" type="tFlow" speed="32.22" pos="291.80" lane="0_0" slope="0.00"/>
    </timestep>
    <timestep time="15.00">
        <vehicle id="first" x="455.10" y="0.00" angle="90.00" type="tFirst" speed="30.00" pos="455.10" lane="0_0" slope="0.00"/>
        <vehicle id="flow.0" x="405.92" y="0.00" angle="90.00" type="tFlow" speed="30.59" pos="405.92" lane="0_0" slope="0.00"/>
        <vehicle id="flow.1" x="354.30" y="0.00" angle="90.00" type="tFlow" speed="31.31" pos="354.30" lane="0_0" slope="0.00"/>
        <vehicle id="flow.2" x="299.85" y="0.00" angle="90.00" type="tFlow" speed="32.19" pos="299.85" lane="0_0" slope="0.00"/>
    </timestep>
    <timestep time="15.25">
        <vehicle id="first" x="462.60" y="0.00" angle="90.00" type="tFirst" speed="30.00" pos="462.60" lane="0_0" slope="0.00"/>
        <vehicle id="flow.0" x="413.57" y="0.00" angle="90.00" type="tFlow" speed="30.58" pos="413.57" lane="0_0" slope="0.00"/>
        <vehicle id="flow.1" x="362.13" y="0.00" angle="90.00" type="tFlow" speed="31.30" pos="362.13" lane="0_0" slope="0.00"/>