<?xml version="1.0" encoding="UTF-8"?>

<!-- generated on 2026-02-16T14:36:35.677183+01:00 by Eclipse SUMO sumo v1_26_0+0231-c31a9327477
This data file and the accompanying materials
are made available under the terms of the Eclipse Public License v2.0
which accompanies this distribution, and is available at
http://www.eclipse.org/legal/epl-v20.html
This file may also be made available under the following Secondary
Licenses when the conditions for such availability set forth in the Eclipse
Public License 2.0 are satisfied: GNU General Public License, version 2
or later which is available at
https://www.gnu.org/licenses/old-licenses/gpl-2.0-standalone.html
SPDX-License-Identifier: EPL-2.0 OR GPL-2.0-or-later
<sumoConfiguration xmlns:xsi="http://www.w3.org/2001/XMLSchema-instance" xsi:noNamespaceSchemaLocation="http://sumo.dlr.de/xsd/sumoConfiguration.xsd">

    <input>
        <net-file value="net.net.xml"/>
        <route-files value="input_routes.rou.xml"/>
        <additional-files value="input_additional.add.xml"/>
    </input>

    <output>
        <write-license value="true"/>
        <edgedata-output value="aggregated.xml"/>
    </output>

    <processing>
        <time-to-teleport value="400"/>
        <default.speeddev value="0"/>
    </processing>

    <report>
        <xml-validation value="never"/>
        <no-step-log value="true"/>
    </report>

</sumoConfiguration>
-->

<meandata xmlns:xsi="http://www.w3.org/2001/XMLSchema-instance" xsi:noNamespaceSchemaLocation="http://sumo.dlr.de/xsd/meandata_file.xsd">
    <interval begin="0.00" end="7340.00" id="DEFAULT_EDGEDATA">
        <edge id="E0" sampledSeconds="135582.77" traveltime="1771.52" overlapTraveltime="1792.39" density="92.33" overlapDensity="92.36" laneDensity="46.17" occupancy="32.17" waitingTime="124060.00" timeLoss="134303.16" speed="0.12" speedRelative="0.01" departed="0" arrived="76" entered="229" left="153" laneChangedFrom="33" laneChangedTo="33" teleported="1" flow="37.53"/>
        <edge id="E1" sampledSeconds="81449.32" traveltime="967.80" overlapTraveltime="1057.78" density="101.53" overlapDensity="110.97" laneDensity="50.76" occupancy="36.31" waitingTime="75286.62" timeLoss="80855.60" speed="0.10" speedRelative="0.01" departed="77" arrived="0" entered="0" left="77" laneChangedFrom="24" laneChangedTo="24" flow="37.77"/>
    </interval>
</meandata>
